
    -----------------------------------------------------------------------
          Psi4: An Open-Source Ab Initio Electronic Structure Package
                               Psi4 1.9a1.dev12 

                         Git: Rev {master} 6ebe472 dirty


    D. G. A. Smith, L. A. Burns, A. C. Simmonett, R. M. Parrish,
    M. C. Schieber, R. Galvelis, P. Kraus, H. Kruse, R. Di Remigio,
    A. Alenaizan, A. M. James, S. Lehtola, J. P. Misiewicz, M. Scheurer,
    R. A. Shaw, J. B. Schriber, Y. Xie, Z. L. Glick, D. A. Sirianni,
    J. S. O'Brien, J. M. Waldrop, A. Kumar, E. G. Hohenstein,
    B. P. Pritchard, B. R. Brooks, H. F. Schaefer III, A. Yu. Sokolov,
    K. Patkowski, A. E. DePrince III, U. Bozkaya, R. A. King,
    F. A. Evangelista, J. M. Turney, T. D. Crawford, C. D. Sherrill,
    J. Chem. Phys. 152(18) 184108 (2020). https://doi.org/10.1063/5.0006002

                            Additional Code Authors
    E. T. Seidl, C. L. Janssen, E. F. Valeev, M. L. Leininger,
    J. F. Gonthier, R. M. Richard, H. R. McAlexander, M. Saitow, X. Wang,
    P. Verma, M. H. Lechner, A. Jiang, S. Behnle, A. G. Heide,
    M. F. Herbst, and D. L. Poole

             Previous Authors, Complete List of Code Contributors,
                       and Citations for Specific Modules
    https://github.com/psi4/psi4/blob/master/codemeta.json
    https://github.com/psi4/psi4/graphs/contributors
    http://psicode.org/psi4manual/master/introduction.html#citing-psifour

    -----------------------------------------------------------------------


    Psi4 started on: Wednesday, 23 August 2023 05:19PM

    Process ID: 12724
    Host:       n023
    PSIDATADIR: /opt/psi/4/1.9a/share/psi4
    Memory:     500.0 MiB
    Threads:    4
    
  ==> Input File <==

--------------------------------------------------------------------------
import os

set reference rhf

import numpy as np
import pickle
import time

print(os.environ["SGE_TASK_ID"])

dist_rr = np.linspace(5.5, 7.0, 10)[int(os.environ["SGE_TASK_ID"]) - 1]

mgcp = geometry(f""" 
    0 1
    symmetry c1
    units angstrom

    C
    C 1 dcc
    C 2 dcc 1 108
    C 3 dcc 2 108 1 0
    C 4 dcc 3 108 2 0
    C 1 drr 2 90  3 90
    C 2 drr 3 90  4 90
    C 3 drr 4 90  5 90
    C 8 dcc 7 108 6 0
    C 9 dcc 8 108 7 0
    H 1 dch 2 126 3 180
    H 2 dch 3 126 4 180
    H 3 dch 4 126 5 180
    H 4 dch 5 126 1 180
    H 5 dch 1 126 2 180
    H 6 dch 7 126 8 180
    H 7 dch 8 126 9 180
    H 8 dch 9 126 10 180
    H 9 dch 10 126 6 180
    H 10 dch 6 126 7 180
    Mg 1 dcbe 11 achbe 6 0
    Mg 6 dcbe 16 achbe 1 0

    dcc = 1.33
    drr = {dist_rr}
    dch = 1.088
    dcbe = 1.930
    achbe = 128.09

""")

set optking {
    frozen_distance = ("
        1 6
        2 7
        3 8
        4 9
        5 10
    ")
}

energy = optimize("b3lyp/cc-pVTZ")

mgcp.save_xyz_file("out/structs/dimgce-" + str(os.environ["SGE_TASK_ID"]) + ".xyz", True)

fstr = ""
with open("out/structs/dimgce-" + str(os.environ["SGE_TASK_ID"]) + ".xyz", "r") as fp :
    for line in fp :
        if len(line) == 0 :
            continue
        newline = line[0]
        for i in range(1, len(line)) :
            if line[i - 1].isupper() and line[i].isupper() :
                newline += line[i].lower()
            else :
                newline += line[i]
        fstr += newline
with open("out/structs/dimgce-" + str(os.environ["SGE_TASK_ID"]) + ".xyz", "w") as fp :
    print(fstr, file = fp)

while os.path.isfile(r"out/lock.dimgce_rr_energies.dat") :
    time.sleep(0.03)
with open(r"out/lock.dimgce_rr_energies.dat", "w+") as _ :
    with open("out/dimgce_rr_energies.dat", "ba+") as fp :
        fp.write(pickle.dumps(dist_rr))
        fp.write(pickle.dumps(energy))
os.remove(r"out/lock.dimgce_rr_energies.dat")

while os.path.isfile(r"out/lock.dimgce_rr_energies.txt") :
    time.sleep(0.03)

with open(r"out/lock.dimgce_rr_energies.txt", "w+") as _ :
    with open(r"out/dimgce_rr_energies.txt", "a+") as fp :
        print(f"Distance: {dist_rr}, Energy: {energy}", file = fp)
os.remove(r"out/lock.dimgce_rr_energies.txt")
--------------------------------------------------------------------------

Scratch directory: /tmp/929361.8.gen4.q/
gradient() will perform analytic gradient computation.
   => Libint2 <=

    Primary   basis highest AM E, G, H:  5, 4, 3
    Auxiliary basis highest AM E, G, H:  6, 5, 4
    Onebody   basis highest AM E, G, H:  6, 5, 4
    Solid Harmonics ordering:            gaussian

*** tstart() called on n023
*** at Wed Aug 23 17:19:17 2023

   => Loading Basis Set <=

    Name: CC-PVTZ
    Role: ORBITAL
    Keyword: BASIS
    atoms 1-10  entry C          line   186 file /opt/psi/4/1.9a/share/psi4/basis/cc-pvtz.gbs 
    atoms 11-20 entry H          line    23 file /opt/psi/4/1.9a/share/psi4/basis/cc-pvtz.gbs 
    atoms 21-22 entry MG         line   465 file /opt/psi/4/1.9a/share/psi4/basis/cc-pvtz.gbs 


         ---------------------------------------------------------
                                   SCF
               by Justin Turney, Rob Parrish, Andy Simmonett
                          and Daniel G. A. Smith
                              RKS Reference
                        4 Threads,    500 MiB Core
         ---------------------------------------------------------

  ==> Geometry <==

    Molecular point group: c1
    Full point group: C2v

    Geometry (in Angstrom), charge = 0, multiplicity = 1:

       Center              X                  Y                   Z               Mass       
    ------------   -----------------  -----------------  -----------------  -----------------
         C            3.333333333333     0.000000000000     1.147328424531    12.000000000000
         C            3.333333333333    -1.075992602519     0.365574038982    12.000000000000
         C            3.333333333333    -0.665000000000    -0.899331127690    12.000000000000
         C            3.333333333333     0.665000000000    -0.899331127690    12.000000000000
         C            3.333333333333     1.075992602519     0.365574038982    12.000000000000
         C           -3.333333333333     0.000000000000     1.147328424531    12.000000000000
         C           -3.333333333333    -1.075992602519     0.365574038982    12.000000000000
         C           -3.333333333333    -0.665000000000    -0.899331127690    12.000000000000
         C           -3.333333333333     0.665000000000    -0.899331127690    12.000000000000
         C           -3.333333333333     1.075992602519     0.365574038982    12.000000000000
         H            3.333333333333     0.000000000000     2.235328424531     1.007825032230
         H            3.333333333333    -2.110742092248     0.701784528862     1.007825032230
         H            3.333333333333    -1.304510354494    -1.779541617570     1.007825032230
         H            3.333333333333     1.304510354494    -1.779541617570     1.007825032230
         H            3.333333333333     2.110742092248     0.701784528862     1.007825032230
         H           -3.333333333333     0.000000000000     2.235328424531     1.007825032230
         H           -3.333333333333    -2.110742092248     0.701784528862     1.007825032230
         H           -3.333333333333    -1.304510354494    -1.779541617570     1.007825032230
         H           -3.333333333333     1.304510354494    -1.779541617570     1.007825032230
         H           -3.333333333333     2.110742092248     0.701784528862     1.007825032230
         MG           1.814340916444     0.000000000000    -0.043285718436    23.985041697000
         MG          -1.814340916444     0.000000000000    -0.043285718436    23.985041697000

  Running in c1 symmetry.

  Rotational constants: A =      0.08289  B =      0.00989  C =      0.00989 [cm^-1]
  Rotational constants: A =   2485.10971  B =    296.43722  C =    296.41583 [MHz]
  Nuclear repulsion =  736.479612373592090

  Charge       = 0
  Multiplicity = 1
  Electrons    = 94
  Nalpha       = 47
  Nbeta        = 47

  ==> Algorithm <==

  SCF Algorithm Type is DF.
  DIIS enabled.
  MOM disabled.
  Fractional occupation disabled.
  Guess Type is SAD.
  Energy threshold   = 1.00e-08
  Density threshold  = 1.00e-08
  Integral threshold = 1.00e-12

  ==> Primary Basis <==

  Basis Set: CC-PVTZ
    Blend: CC-PVTZ
    Number of shells: 184
    Number of basis functions: 508
    Number of Cartesian functions: 578
    Spherical Harmonics?: true
    Max angular momentum: 3

  ==> DFT Potential <==

   => LibXC <=

    Version 6.1.0
    S. Lehtola, C. Steigemann, M. J.T. Oliveira, and M. A.L. Marques.,  SoftwareX 7, 1–5 (2018) (10.1016/j.softx.2017.11.002)

   => Composite Functional: B3LYP <= 

    B3LYP Hyb-GGA Exchange-Correlation Functional

    P. J. Stephens, F. J. Devlin, C. F. Chabalowski, and M. J. Frisch.,  J. Phys. Chem. 98, 11623 (1994) (10.1021/j100096a001)

    Deriv               =              1
    GGA                 =           TRUE
    Meta                =          FALSE

    Exchange Hybrid     =           TRUE
    MP2 Hybrid          =          FALSE

   => Exchange Functionals <=

    0.0800   Slater exchange
    0.7200         Becke 88

   => Exact (HF) Exchange <=

    0.2000               HF 

   => Correlation Functionals <=

    0.1900   Vosko, Wilk & Nusair (VWN5_RPA)
    0.8100   Lee, Yang & Parr

   => LibXC Density Thresholds  <==

    XC_HYB_GGA_XC_B3LYP:  1.00E-15 

   => Molecular Quadrature <=

    Radial Scheme          =       TREUTLER
    Pruning Scheme         =           NONE
    Nuclear Scheme         =       TREUTLER

    Blocking Scheme        =         OCTREE
    BS radius alpha        =              1
    Pruning alpha          =              1
    Radial Points          =             75
    Spherical Points       =            302
    Total Points           =         459614
    Total Blocks           =           3356
    Max Points             =            256
    Max Functions          =            386
    Weights Tolerance      =       1.00E-15

   => Loading Basis Set <=

    Name: (CC-PVTZ AUX)
    Role: JKFIT
    Keyword: DF_BASIS_SCF
    atoms 1-10  entry C          line   125 file /opt/psi/4/1.9a/share/psi4/basis/cc-pvtz-jkfit.gbs 
    atoms 11-20 entry H          line    51 file /opt/psi/4/1.9a/share/psi4/basis/cc-pvtz-jkfit.gbs 
    atoms 21-22 entry MG         line   576 file /opt/psi/4/1.9a/share/psi4/basis/def2-universal-jkfit.gbs 

  ==> Integral Setup <==

  ==> DiskDFJK: Density-Fitted J/K Matrices <==

    J tasked:                  Yes
    K tasked:                  Yes
    wK tasked:                  No
    OpenMP threads:              4
    Integrals threads:           4
    Memory [MiB]:              337
    Algorithm:                Disk
    Integral Cache:           NONE
    Schwarz Cutoff:          1E-12
    Fitting Condition:       1E-10

   => Auxiliary Basis Set <=

  Basis Set: (CC-PVTZ AUX)
    Blend: CC-PVTZ-JKFIT + DEF2-UNIVERSAL-JKFIT
    Number of shells: 418
    Number of basis functions: 1314
    Number of Cartesian functions: 1584
    Spherical Harmonics?: true
    Max angular momentum: 4

  Cached 1.0% of DFT collocation blocks in 0.038 [GiB].

  Minimum eigenvalue in the overlap matrix is 6.7387904018E-05.
  Reciprocal condition number of the overlap matrix is 6.1873380158E-06.
    Using symmetric orthogonalization.

  ==> Pre-Iterations <==

  SCF Guess: Superposition of Atomic Densities via on-the-fly atomic UHF (no occupation information).

   -------------------------
    Irrep   Nso     Nmo    
   -------------------------
     A        508     508 
   -------------------------
    Total     508     508
   -------------------------

  ==> Iterations <==

                           Total Energy        Delta E     RMS |[F,P]|

   @DF-RKS iter SAD:  -788.87834321472337   -7.88878e+02   0.00000e+00 
   @DF-RKS iter   1:  -784.08228738704543    4.79606e+00   4.49249e-03 ADIIS/DIIS
   @DF-RKS iter   2:  -763.01886029033017    2.10634e+01   1.12835e-02 ADIIS/DIIS
   @DF-RKS iter   3:  -786.98408416567645   -2.39652e+01   1.17594e-03 ADIIS/DIIS
   @DF-RKS iter   4:  -787.00398794535295   -1.99038e-02   1.05544e-03 ADIIS/DIIS
   @DF-RKS iter   5:  -787.16007994641541   -1.56092e-01   1.97649e-04 ADIIS/DIIS
   @DF-RKS iter   6:  -787.16490381037011   -4.82386e-03   1.02092e-04 ADIIS/DIIS
   @DF-RKS iter   7:  -787.16631823580701   -1.41443e-03   1.19946e-05 DIIS
   @DF-RKS iter   8:  -787.16633452068800   -1.62849e-05   3.37134e-06 DIIS
   @DF-RKS iter   9:  -787.16633671486034   -2.19417e-06   8.04768e-07 DIIS
   @DF-RKS iter  10:  -787.16633679261918   -7.77588e-08   2.98593e-07 DIIS
   @DF-RKS iter  11:  -787.16633680316863   -1.05495e-08   5.61060e-08 DIIS
   @DF-RKS iter  12:  -787.16633680360542   -4.36785e-10   6.90147e-09 DIIS
  Energy and wave function converged.


  ==> Post-Iterations <==

   Electrons on quadrature grid:
      Ntotal   =   93.9998740696 ; deviation = -1.259e-04 

    Orbital Energies [Eh]
    ---------------------

    Doubly Occupied:                                                      

       1A    -46.778603     2A    -46.778596     3A    -10.161206  
       4A    -10.161205     5A    -10.160523     6A    -10.160522  
       7A    -10.160359     8A    -10.160359     9A    -10.159585  
      10A    -10.159584    11A    -10.159121    12A    -10.159121  
      13A     -3.074501    14A     -3.074501    15A     -1.823225  
      16A     -1.823162    17A     -1.818264    18A     -1.818254  
      19A     -1.818253    20A     -1.818243    21A     -0.955323  
      22A     -0.955320    23A     -0.741988    24A     -0.741988  
      25A     -0.741968    26A     -0.741967    27A     -0.556659  
      28A     -0.556657    29A     -0.556391    30A     -0.556388  
      31A     -0.555805    32A     -0.555792    33A     -0.443236  
      34A     -0.442481    35A     -0.412311    36A     -0.412309  
      37A     -0.412308    38A     -0.412306    39A     -0.392538  
      40A     -0.392535    41A     -0.392136    42A     -0.392132  
      43A     -0.265894    44A     -0.265842    45A     -0.265268  
      46A     -0.265215    47A     -0.138450  

    Virtual:                                                              

      48A      0.001186    49A      0.001229    50A      0.006556  
      51A      0.020403    52A      0.030984    53A      0.040176  
      54A      0.041306    55A      0.043406    56A      0.044575  
      57A      0.044789    58A      0.044832    59A      0.064005  
      60A      0.065359    61A      0.087960    62A      0.088012  
      63A      0.103570    64A      0.104003    65A      0.105553  
      66A      0.105828    67A      0.106271    68A      0.145377  
      69A      0.145403    70A      0.154002    71A      0.154028  
      72A      0.187997    73A      0.200040    74A      0.201305  
      75A      0.202908    76A      0.203806    77A      0.205582  
      78A      0.205707    79A      0.219908    80A      0.220005  
      81A      0.230094    82A      0.230133    83A      0.234349  
      84A      0.287486    85A      0.287559    86A      0.293963  
      87A      0.294035    88A      0.294883    89A      0.295299  
      90A      0.303332    91A      0.324586    92A      0.349215  
      93A      0.349533    94A      0.372661    95A      0.376347  
      96A      0.381103    97A      0.382532    98A      0.383123  
      99A      0.383655   100A      0.385656   101A      0.386319  
     102A      0.387790   103A      0.411382   104A      0.411407  
     105A      0.422178   106A      0.422312   107A      0.425796  
     108A      0.428230   109A      0.433968   110A      0.437672  
     111A      0.440719   112A      0.440766   113A      0.451358  
     114A      0.473785   115A      0.475599   116A      0.482427  
     117A      0.482611   118A      0.482818   119A      0.483033  
     120A      0.536503   121A      0.536511   122A      0.553287  
     123A      0.554907   124A      0.562106   125A      0.562162  
     126A      0.564478   127A      0.569862   128A      0.585546  
     129A      0.598351   130A      0.627363   131A      0.648548  
     132A      0.649853   133A      0.650142   134A      0.654051  
     135A      0.656710   136A      0.657860   137A      0.668773  
     138A      0.670746   139A      0.683002   140A      0.683153  
     141A      0.710918   142A      0.711130   143A      0.738306  
     144A      0.738382   145A      0.746770   146A      0.746876  
     147A      0.749283   148A      0.754511   149A      0.786056  
     150A      0.788689   151A      0.789999   152A      0.791623  
     153A      0.805539   154A      0.806005   155A      0.807422  
     156A      0.890194   157A      0.891647   158A      0.894912  
     159A      0.896116   160A      0.900294   161A      0.902396  
     162A      0.910433   163A      0.911685   164A      0.951131  
     165A      0.951716   166A      0.969032   167A      0.969063  
     168A      0.997988   169A      1.003632   170A      1.023035  
     171A      1.033377   172A      1.057746   173A      1.060340  
     174A      1.064500   175A      1.067414   176A      1.068182  
     177A      1.073483   178A      1.078724   179A      1.085213  
     180A      1.085910   181A      1.086027   182A      1.086142  
     183A      1.091723   184A      1.102906   185A      1.103014  
     186A      1.119073   187A      1.120497   188A      1.121770  
     189A      1.121794   190A      1.129862   191A      1.149199  
     192A      1.159461   193A      1.174151   194A      1.174793  
     195A      1.179709   196A      1.180798   197A      1.181962  
     198A      1.189632   199A      1.221549   200A      1.225822  
     201A      1.225836   202A      1.231079   203A      1.235855  
     204A      1.235991   205A      1.236346   206A      1.240148  
     207A      1.243137   208A      1.255820   209A      1.263815  
     210A      1.292977   211A      1.294789   212A      1.319507  
     213A      1.319586   214A      1.329972   215A      1.330257  
     216A      1.331361   217A      1.331841   218A      1.349852  
     219A      1.359347   220A      1.359469   221A      1.360040  
     222A      1.363222   223A      1.370917   224A      1.371444  
     225A      1.379373   226A      1.383025   227A      1.420136  
     228A      1.420143   229A      1.426855   230A      1.450578  
     231A      1.450580   232A      1.524574   233A      1.529736  
     234A      1.564434   235A      1.574446   236A      1.578179  
     237A      1.591751   238A      1.646145   239A      1.653327  
     240A      1.664597   241A      1.677273   242A      1.685717  
     243A      1.685811   244A      1.703221   245A      1.775411  
     246A      1.775541   247A      1.783931   248A      1.786065  
     249A      1.789974   250A      1.790049   251A      1.814001  
     252A      1.824377   253A      2.065202   254A      2.065310  
     255A      2.082420   256A      2.082443   257A      2.116863  
     258A      2.169637   259A      2.291143   260A      2.297447  
     261A      2.318217   262A      2.320681   263A      2.320971  
     264A      2.361155   265A      2.370457   266A      2.371973  
     267A      2.375774   268A      2.377398   269A      2.433864  
     270A      2.438559   271A      2.440765   272A      2.443185  
     273A      2.520591   274A      2.553105   275A      2.553359  
     276A      2.605542   277A      2.605910   278A      2.633553  
     279A      2.659909   280A      2.660377   281A      2.686911  
     282A      2.687124   283A      2.719049   284A      2.723174  
     285A      2.740400   286A      2.750022   287A      2.778686  
     288A      2.798342   289A      2.803977   290A      2.805478  
     291A      2.811388   292A      2.817300   293A      2.817528  
     294A      2.820519   295A      2.820800   296A      2.839081  
     297A      2.841438   298A      2.841980   299A      2.865125  
     300A      2.865931   301A      2.890155   302A      2.893212  
     303A      2.893614   304A      2.896143   305A      2.898931  
     306A      2.918088   307A      2.934554   308A      2.939414  
     309A      2.941547   310A      2.942067   311A      2.942499  
     312A      2.943612   313A      2.951757   314A      2.954617  
     315A      2.958769   316A      2.961671   317A      3.018161  
     318A      3.020473   319A      3.033542   320A      3.035238  
     321A      3.045785   322A      3.052654   323A      3.055969  
     324A      3.066273   325A      3.070154   326A      3.070840  
     327A      3.070957   328A      3.079781   329A      3.081082  
     330A      3.091749   331A      3.110112   332A      3.119520  
     333A      3.158732   334A      3.160104   335A      3.160642  
     336A      3.161586   337A      3.193761   338A      3.196746  
     339A      3.225046   340A      3.225050   341A      3.255389  
     342A      3.257243   343A      3.311006   344A      3.317964  
     345A      3.331831   346A      3.338515   347A      3.359152  
     348A      3.359404   349A      3.383475   350A      3.383616  
     351A      3.398422   352A      3.415341   353A      3.421619  
     354A      3.426445   355A      3.436276   356A      3.442599  
     357A      3.446436   358A      3.448827   359A      3.451447  
     360A      3.453111   361A      3.476366   362A      3.476487  
     363A      3.483004   364A      3.490773   365A      3.491609  
     366A      3.505373   367A      3.506139   368A      3.507882  
     369A      3.508169   370A      3.600831   371A      3.648353  
     372A      3.649140   373A      3.650514   374A      3.650557  
     375A      3.688188   376A      3.688193   377A      3.695450  
     378A      3.700047   379A      3.718787   380A      3.718788  
     381A      3.805812   382A      3.806327   383A      3.824958  
     384A      3.825207   385A      3.843426   386A      3.843849  
     387A      3.848269   388A      3.848731   389A      3.905697  
     390A      3.911303   391A      3.914595   392A      3.921821  
     393A      3.953720   394A      3.973193   395A      3.973471  
     396A      3.983771   397A      3.986257   398A      3.997545  
     399A      4.028656   400A      4.028864   401A      4.038307  
     402A      4.039826   403A      4.044102   404A      4.044959  
     405A      4.057608   406A      4.063465   407A      4.065366  
     408A      4.100696   409A      4.100821   410A      4.161098  
     411A      4.161326   412A      4.171343   413A      4.174178  
     414A      4.264732   415A      4.265862   416A      4.266259  
     417A      4.267471   418A      4.317328   419A      4.319587  
     420A      4.335362   421A      4.335681   422A      4.369952  
     423A      4.370580   424A      4.370715   425A      4.373802  
     426A      4.374314   427A      4.392631   428A      4.392786  
     429A      4.394782   430A      4.395393   431A      4.456685  
     432A      4.457309   433A      4.458179   434A      4.458883  
     435A      4.471743   436A      4.478749   437A      4.482626  
     438A      4.483210   439A      4.483509   440A      4.485012  
     441A      4.485919   442A      4.488065   443A      4.490512  
     444A      4.508914   445A      4.590291   446A      4.620311  
     447A      4.627442   448A      4.627734   449A      4.627825  
     450A      4.629223   451A      4.693624   452A      4.693626  
     453A      4.700789   454A      4.700934   455A      4.828503  
     456A      4.900559   457A      4.900805   458A      4.901545  
     459A      4.901747   460A      4.904155   461A      4.904210  
     462A      5.024074   463A      5.024146   464A      5.038546  
     465A      5.126320   466A      5.127113   467A      5.133438  
     468A      5.133925   469A      5.169144   470A      5.169514  
     471A      5.201992   472A      5.202506   473A      5.215058  
     474A      5.239153   475A      5.459146   476A      5.460382  
     477A      5.461020   478A      5.462219   479A      5.682122  
     480A      5.682359   481A      5.702214   482A      5.702380  
     483A      5.848413   484A      5.848455   485A      5.862541  
     486A      5.863128   487A      5.864867   488A      5.866343  
     489A      6.143611   490A      6.143721   491A      6.174203  
     492A      6.174277   493A      6.616171   494A      6.617923  
     495A      6.619192   496A      6.622402   497A      6.839268  
     498A      6.839290   499A      9.590873   500A      9.620545  
     501A     13.726334   502A     13.728648   503A     13.868997  
     504A     13.871743   505A     14.930965   506A     14.936087  
     507A     14.937723   508A     14.943837  

    Final Occupation by Irrep:
              A 
    DOCC [    47 ]
    NA   [    47 ]
    NB   [    47 ]

  @DF-RKS Final Energy:  -787.16633680360542

   => Energetics <=

    Nuclear Repulsion Energy =            736.4796123735920901
    One-Electron Energy =               -2542.5258520079732989
    Two-Electron Energy =                1093.1914073105986063
    DFT Exchange-Correlation Energy =     -74.3115044798227302
    Empirical Dispersion Energy =           0.0000000000000000
    VV10 Nonlocal Energy =                  0.0000000000000000
    Total Energy =                       -787.1663368036053043

Computation Completed


Properties will be evaluated at   0.000000,   0.000000,   0.000000 [a0]

Properties computed using the SCF density matrix


 Multipole Moments:

 ------------------------------------------------------------------------------------
     Multipole            Electronic (a.u.)      Nuclear  (a.u.)        Total (a.u.)
 ------------------------------------------------------------------------------------

 L = 1.  Multiply by 2.5417464519 to convert [e a0] to [Debye]
 Dipole X            :          0.0000000           -0.0000000            0.0000000
 Dipole Y            :         -0.0000000           -0.0000000           -0.0000000
 Dipole Z            :         -0.1509200            0.1484233           -0.0024968
 Magnitude           :                                                    0.0024968

 ------------------------------------------------------------------------------------

*** tstop() called on n023 at Wed Aug 23 17:20:58 2023
Module time:
	user time   =     387.67 seconds =       6.46 minutes
	system time =       4.19 seconds =       0.07 minutes
	total time  =        101 seconds =       1.68 minutes
Total time:
	user time   =     387.67 seconds =       6.46 minutes
	system time =       4.19 seconds =       0.07 minutes
	total time  =        101 seconds =       1.68 minutes

*** tstart() called on n023
*** at Wed Aug 23 17:20:58 2023


         ------------------------------------------------------------
                                   SCF GRAD                          
                          Rob Parrish, Justin Turney,                
                       Andy Simmonett, and Alex Sokolov              
         ------------------------------------------------------------

  ==> Geometry <==

    Molecular point group: c1
    Full point group: C2v

    Geometry (in Angstrom), charge = 0, multiplicity = 1:

       Center              X                  Y                   Z               Mass       
    ------------   -----------------  -----------------  -----------------  -----------------
         C            3.333333333333     0.000000000000     1.147328424531    12.000000000000
         C            3.333333333333    -1.075992602519     0.365574038982    12.000000000000
         C            3.333333333333    -0.665000000000    -0.899331127690    12.000000000000
         C            3.333333333333     0.665000000000    -0.899331127690    12.000000000000
         C            3.333333333333     1.075992602519     0.365574038982    12.000000000000
         C           -3.333333333333     0.000000000000     1.147328424531    12.000000000000
         C           -3.333333333333    -1.075992602519     0.365574038982    12.000000000000
         C           -3.333333333333    -0.665000000000    -0.899331127690    12.000000000000
         C           -3.333333333333     0.665000000000    -0.899331127690    12.000000000000
         C           -3.333333333333     1.075992602519     0.365574038982    12.000000000000
         H            3.333333333333     0.000000000000     2.235328424531     1.007825032230
         H            3.333333333333    -2.110742092248     0.701784528862     1.007825032230
         H            3.333333333333    -1.304510354494    -1.779541617570     1.007825032230
         H            3.333333333333     1.304510354494    -1.779541617570     1.007825032230
         H            3.333333333333     2.110742092248     0.701784528862     1.007825032230
         H           -3.333333333333     0.000000000000     2.235328424531     1.007825032230
         H           -3.333333333333    -2.110742092248     0.701784528862     1.007825032230
         H           -3.333333333333    -1.304510354494    -1.779541617570     1.007825032230
         H           -3.333333333333     1.304510354494    -1.779541617570     1.007825032230
         H           -3.333333333333     2.110742092248     0.701784528862     1.007825032230
         MG           1.814340916444     0.000000000000    -0.043285718436    23.985041697000
         MG          -1.814340916444     0.000000000000    -0.043285718436    23.985041697000

  Nuclear repulsion =  736.479612373592204

  ==> Basis Set <==

  Basis Set: CC-PVTZ
    Blend: CC-PVTZ
    Number of shells: 184
    Number of basis functions: 508
    Number of Cartesian functions: 578
    Spherical Harmonics?: true
    Max angular momentum: 3

  ==> DFJKGrad: Density-Fitted SCF Gradients <==

    Gradient:                    1
    J tasked:                  Yes
    K tasked:                  Yes
    wK tasked:                  No
    OpenMP threads:              4
    Integrals threads:           4
    Memory [MiB]:              375
    Schwarz Cutoff:          1E-12
    Fitting Condition:       1E-10

   => Auxiliary Basis Set <=

  Basis Set: (CC-PVTZ AUX)
    Blend: CC-PVTZ-JKFIT + DEF2-UNIVERSAL-JKFIT
    Number of shells: 418
    Number of basis functions: 1314
    Number of Cartesian functions: 1584
    Spherical Harmonics?: true
    Max angular momentum: 4

  ==> DFT Potential <==

   => LibXC <=

    Version 6.1.0
    S. Lehtola, C. Steigemann, M. J.T. Oliveira, and M. A.L. Marques.,  SoftwareX 7, 1–5 (2018) (10.1016/j.softx.2017.11.002)

   => Composite Functional: B3LYP <= 

    B3LYP Hyb-GGA Exchange-Correlation Functional

    P. J. Stephens, F. J. Devlin, C. F. Chabalowski, and M. J. Frisch.,  J. Phys. Chem. 98, 11623 (1994) (10.1021/j100096a001)

    Deriv               =              1
    GGA                 =           TRUE
    Meta                =          FALSE

    Exchange Hybrid     =           TRUE
    MP2 Hybrid          =          FALSE

   => Exchange Functionals <=

    0.0800   Slater exchange
    0.7200         Becke 88

   => Exact (HF) Exchange <=

    0.2000               HF 

   => Correlation Functionals <=

    0.1900   Vosko, Wilk & Nusair (VWN5_RPA)
    0.8100   Lee, Yang & Parr

   => LibXC Density Thresholds  <==

    XC_HYB_GGA_XC_B3LYP:  1.00E-15 

   => Molecular Quadrature <=

    Radial Scheme          =       TREUTLER
    Pruning Scheme         =           NONE
    Nuclear Scheme         =       TREUTLER

    Blocking Scheme        =         OCTREE
    BS radius alpha        =              1
    Pruning alpha          =              1
    Radial Points          =             75
    Spherical Points       =            302
    Total Points           =         459614
    Total Blocks           =           3356
    Max Points             =            256
    Max Functions          =            386
    Weights Tolerance      =       1.00E-15


  -Total Gradient:
     Atom            X                  Y                   Z
    ------   -----------------  -----------------  -----------------
       1       -0.042136775380    -0.000000014615    -0.136086016679
       2       -0.048349262864     0.132231089299    -0.044107504232
       3       -0.060396062533     0.086255219585     0.117187310572
       4       -0.060396058302    -0.086255233231     0.117187299087
       5       -0.048349255807    -0.132231092452    -0.044107501089
       6        0.042136775252    -0.000000003633    -0.136086023016
       7        0.048349259774     0.132231104415    -0.044107508468
       8        0.060396062825     0.086255238652     0.117187310235
       9        0.060396061751    -0.086255241918     0.117187307512
      10        0.048349256611    -0.132231108621    -0.044107508848
      11        0.000933267887     0.000000002020     0.006198105621
      12        0.000719671171    -0.005838310815     0.002004098525
      13        0.000322404688    -0.003644770366    -0.004915973635
      14        0.000322402558     0.003644780112    -0.004915981988
      15        0.000719667487     0.005838335167     0.002004105472
      16       -0.000933265248     0.000000000685     0.006198119410
      17       -0.000719666781    -0.005838339299     0.002004107717
      18       -0.000322401868    -0.003644780635    -0.004915984470
      19       -0.000322401176     0.003644783447    -0.004915986670
      20       -0.000719665412     0.005838348775     0.002004110516
      21        0.276336617865    -0.000000004608    -0.010443313457
      22       -0.276336632500    -0.000000001967    -0.010443315625


*** tstop() called on n023 at Wed Aug 23 17:21:25 2023
Module time:
	user time   =     104.14 seconds =       1.74 minutes
	system time =       0.26 seconds =       0.00 minutes
	total time  =         27 seconds =       0.45 minutes
Total time:
	user time   =     491.82 seconds =       8.20 minutes
	system time =       4.46 seconds =       0.07 minutes
	total time  =        128 seconds =       2.13 minutes

    			-----------------------------------------

    			 OPTKING 3.0: for geometry optimizations 

    			     By R.A. King, Bethel University     

    			        with contributions from          

    			    A.V. Copan, J. Cayton, A. Heide      

    			-----------------------------------------

    
	                            ===> Fragment 1 <== 

	 Z (Atomic Numbers)          Masses                          Geom                  
	       6.000000            12.000000          6.29908708  0.00000000  2.16813650   
	       6.000000            12.000000          6.29908708 -2.03333133  0.69083481   
	       6.000000            12.000000          6.29908708 -1.25666787 -1.69948953   
	       6.000000            12.000000          6.29908708  1.25666787 -1.69948953   
	       6.000000            12.000000          6.29908708  2.03333133  0.69083481   
	       6.000000            12.000000         -6.29908708  0.00000000  2.16813650   
	       6.000000            12.000000         -6.29908708 -2.03333133  0.69083481   
	       6.000000            12.000000         -6.29908708 -1.25666787 -1.69948953   
	       6.000000            12.000000         -6.29908708  1.25666787 -1.69948953   
	       6.000000            12.000000         -6.29908708  2.03333133  0.69083481   
	       1.000000             1.007825          6.29908708  0.00000000  4.22415852   
	       1.000000             1.007825          6.29908708 -3.98872448  1.32618056   
	       1.000000             1.007825          6.29908708 -2.46516730 -3.36284629   
	       1.000000             1.007825          6.29908708  2.46516730 -3.36284629   
	       1.000000             1.007825          6.29908708  3.98872448  1.32618056   
	       1.000000             1.007825         -6.29908708  0.00000000  4.22415852   
	       1.000000             1.007825         -6.29908708 -3.98872448  1.32618056   
	       1.000000             1.007825         -6.29908708 -2.46516730 -3.36284629   
	       1.000000             1.007825         -6.29908708  2.46516730 -3.36284629   
	       1.000000             1.007825         -6.29908708  3.98872448  1.32618056   
	      12.000000            23.985042          3.42860743  0.00000000 -0.08179815   
	      12.000000            23.985042         -3.42860743  0.00000000 -0.08179815   

	 - Coordinate -           - BOHR/RAD -       - ANG/DEG -
	 R(1,2)           =         2.513336           1.330000
	 R(1,5)           =         2.513336           1.330000
	 R(1,11)          =         2.056022           1.088000
	 R(1,21)          =         3.647171           1.930000
	 R(2,3)           =         2.513336           1.330000
	 R(2,12)          =         2.056022           1.088000
	 R(2,21)          =         3.601535           1.905850
	 R(3,4)           =         2.513336           1.330000
	 R(3,13)          =         2.056022           1.088000
	 R(3,21)          =         3.526442           1.866113
	 R(4,5)           =         2.513336           1.330000
	 R(4,14)          =         2.056022           1.088000
	 R(4,21)          =         3.526442           1.866113
	 R(5,15)          =         2.056022           1.088000
	 R(5,21)          =         3.601535           1.905850
	 R(6,7)           =         2.513336           1.330000
	 R(6,10)          =         2.513336           1.330000
	 R(6,16)          =         2.056022           1.088000
	 R(6,22)          =         3.647171           1.930000
	 R(7,8)           =         2.513336           1.330000
	 R(7,17)          =         2.056022           1.088000
	 R(7,22)          =         3.601535           1.905850
	 R(8,9)           =         2.513336           1.330000
	 R(8,18)          =         2.056022           1.088000
	 R(8,22)          =         3.526442           1.866113
	 R(9,10)          =         2.513336           1.330000
	 R(9,19)          =         2.056022           1.088000
	 R(9,22)          =         3.526442           1.866113
	 R(10,20)         =         2.056022           1.088000
	 R(10,22)         =         3.601535           1.905850
	 R(21,22)         =         6.857215           3.628682
	 B(1,2,3)         =         1.884956         108.000000
	 B(1,2,12)        =         2.199115         126.000000
	 B(1,2,21)        =         1.233801          70.691600
	 B(1,5,4)         =         1.884956         108.000000
	 B(1,5,15)        =         2.199115         126.000000
	 B(1,5,21)        =         1.233801          70.691600
	 B(1,21,2)        =         0.708056          40.568594
	 B(1,21,3)        =         1.205044          69.043939
	 B(1,21,4)        =         1.205044          69.043939
	 B(1,21,5)        =         0.708056          40.568594
	 B(1,21,22)       =         2.476797         141.910000
	 B(2,1,5)         =         1.884956         108.000000
	 B(2,1,11)        =         2.199115         126.000000
	 B(2,1,21)        =         1.199736          68.739806
	 B(2,3,4)         =         1.884956         108.000000
	 B(2,3,13)        =         2.199115         126.000000
	 B(2,3,21)        =         1.238558          70.964134
	 B(2,21,3)        =         0.720405          41.276163
	 B(2,21,4)        =         1.214121          69.564020
	 B(2,21,5)        =         1.199833          68.745372
	 B(2,21,22)       =         2.493134         142.846061
	 B(3,2,12)        =         2.199115         126.000000
	 B(3,2,21)        =         1.182630          67.759703
	 B(3,4,5)         =         1.884956         108.000000
	 B(3,4,14)        =         2.199115         126.000000
	 B(3,4,21)        =         1.206432          69.123442
	 B(3,21,4)        =         0.728729          41.753116
	 B(3,21,5)        =         1.214121          69.564020
	 B(3,21,22)       =         2.521780         144.487370
	 B(4,3,13)        =         2.199115         126.000000
	 B(4,3,21)        =         1.206432          69.123442
	 B(4,5,15)        =         2.199115         126.000000
	 B(4,5,21)        =         1.182630          67.759703
	 B(4,21,5)        =         0.720405          41.276163
	 B(4,21,22)       =         2.521780         144.487370
	 B(5,1,11)        =         2.199115         126.000000
	 B(5,1,21)        =         1.199736          68.739806
	 B(5,4,14)        =         2.199115         126.000000
	 B(5,4,21)        =         1.238558          70.964134
	 B(5,21,22)       =         2.493134         142.846061
	 B(6,7,8)         =         1.884956         108.000000
	 B(6,7,17)        =         2.199115         126.000000
	 B(6,7,22)        =         1.233801          70.691600
	 B(6,10,9)        =         1.884956         108.000000
	 B(6,10,20)       =         2.199115         126.000000
	 B(6,10,22)       =         1.233801          70.691600
	 B(6,22,7)        =         0.708056          40.568594
	 B(6,22,8)        =         1.205044          69.043939
	 B(6,22,9)        =         1.205044          69.043939
	 B(6,22,10)       =         0.708056          40.568594
	 B(6,22,21)       =         2.476797         141.910000
	 B(7,6,10)        =         1.884956         108.000000
	 B(7,6,16)        =         2.199115         126.000000
	 B(7,6,22)        =         1.199736          68.739806
	 B(7,8,9)         =         1.884956         108.000000
	 B(7,8,18)        =         2.199115         126.000000
	 B(7,8,22)        =         1.238558          70.964134
	 B(7,22,8)        =         0.720405          41.276163
	 B(7,22,9)        =         1.214121          69.564020
	 B(7,22,10)       =         1.199833          68.745372
	 B(7,22,21)       =         2.493134         142.846061
	 B(8,7,17)        =         2.199115         126.000000
	 B(8,7,22)        =         1.182630          67.759703
	 B(8,9,10)        =         1.884956         108.000000
	 B(8,9,19)        =         2.199115         126.000000
	 B(8,9,22)        =         1.206432          69.123442
	 B(8,22,9)        =         0.728729          41.753116
	 B(8,22,10)       =         1.214121          69.564020
	 B(8,22,21)       =         2.521780         144.487370
	 B(9,8,18)        =         2.199115         126.000000
	 B(9,8,22)        =         1.206432          69.123442
	 B(9,10,20)       =         2.199115         126.000000
	 B(9,10,22)       =         1.182630          67.759703
	 B(9,22,10)       =         0.720405          41.276163
	 B(9,22,21)       =         2.521780         144.487370
	 B(10,6,16)       =         2.199115         126.000000
	 B(10,6,22)       =         1.199736          68.739806
	 B(10,9,19)       =         2.199115         126.000000
	 B(10,9,22)       =         1.238558          70.964134
	 B(10,22,21)      =         2.493134         142.846061
	 B(11,1,21)       =         2.235592         128.090000
	 B(12,2,21)       =         2.218347         127.101901
	 B(13,3,21)       =         2.190240         125.491526
	 B(14,4,21)       =         2.190240         125.491526
	 B(15,5,21)       =         2.218347         127.101901
	 B(16,6,22)       =         2.235592         128.090000
	 B(17,7,22)       =         2.218347         127.101901
	 B(18,8,22)       =         2.190240         125.491526
	 B(19,9,22)       =         2.190240         125.491526
	 B(20,10,22)      =         2.218347         127.101901
	 D(1,2,3,4)       =         0.000000           0.000000
	 D(1,2,3,13)      =         3.141593         180.000000
	 D(1,2,3,21)      =        -1.037382         -59.437586
	 D(1,2,21,3)      =         2.090956         119.802941
	 D(1,2,21,4)      =         1.418558          81.277414
	 D(1,2,21,5)      =         0.645267          36.971091
	 D(1,2,21,22)     =        -2.051443        -117.539053
	 D(1,5,4,3)       =         0.000000           0.000000
	 D(1,5,4,14)      =         3.141593         180.000000
	 D(1,5,4,21)      =         1.037382          59.437586
	 D(1,5,21,2)      =        -0.645267         -36.971091
	 D(1,5,21,3)      =        -1.418558         -81.277414
	 D(1,5,21,4)      =        -2.090956        -119.802941
	 D(1,5,21,22)     =         2.051443         117.539053
	 D(1,21,2,3)      =        -2.090956        -119.802941
	 D(1,21,2,12)     =         2.112862         121.058047
	 D(1,21,3,2)      =         0.648904          37.179487
	 D(1,21,3,4)      =        -1.424204         -81.600870
	 D(1,21,3,13)     =         2.763802         158.354189
	 D(1,21,4,3)      =         1.424204          81.600870
	 D(1,21,4,5)      =        -0.648904         -37.179487
	 D(1,21,4,14)     =        -2.763802        -158.354189
	 D(1,21,5,4)      =         2.090956         119.802941
	 D(1,21,5,15)     =        -2.112862        -121.058047
	 D(1,21,22,6)     =         0.000000           0.000000
	 D(1,21,22,7)     =        -1.207663         -69.194020
	 D(1,21,22,8)     =        -2.481142        -142.158941
	 D(1,21,22,9)     =         2.481142         142.158941
	 D(1,21,22,10)    =         1.207663          69.194020
	 D(2,1,5,4)       =         0.000000           0.000000
	 D(2,1,5,15)      =         3.141593         180.000000
	 D(2,1,5,21)      =         1.005664          57.620302
	 D(2,1,21,3)      =        -0.659832         -37.805609
	 D(2,1,21,4)      =        -1.442878         -82.670821
	 D(2,1,21,5)      =        -2.102710        -120.476430
	 D(2,1,21,22)     =         2.090237         119.761785
	 D(2,3,4,5)       =         0.000000           0.000000
	 D(2,3,4,14)      =         3.141593         180.000000
	 D(2,3,4,21)      =        -1.057601         -60.596073
	 D(2,3,21,4)      =         2.073108         118.780357
	 D(2,3,21,5)      =         1.408141          80.680558
	 D(2,3,21,22)     =        -2.075429        -118.913320
	 D(2,21,1,5)      =         2.102710         120.476430
	 D(2,21,1,11)     =        -2.090237        -119.761785
	 D(2,21,3,4)      =        -2.073108        -118.780357
	 D(2,21,3,13)     =         2.114898         121.174702
	 D(2,21,4,3)      =         0.664967          38.099799
	 D(2,21,4,5)      =        -1.408141         -80.680558
	 D(2,21,4,14)     =         2.760146         158.144740
	 D(2,21,5,4)      =         1.445689          82.831851
	 D(2,21,5,15)     =        -2.758129        -158.029138
	 D(2,21,22,6)     =         1.207663          69.194020
	 D(2,21,22,7)     =        -0.000000          -0.000000
	 D(2,21,22,8)     =        -1.273478         -72.964920
	 D(2,21,22,9)     =        -2.594380        -148.647039
	 D(2,21,22,10)    =         2.415327         138.388040
	 D(3,2,1,5)       =         0.000000           0.000000
	 D(3,2,1,11)      =         3.141593         180.000000
	 D(3,2,1,21)      =         1.005664          57.620302
	 D(3,2,21,4)      =        -0.672397         -38.525527
	 D(3,2,21,5)      =        -1.445689         -82.831851
	 D(3,2,21,22)     =         2.140786         122.658006
	 D(3,4,5,15)      =         3.141593         180.000000
	 D(3,4,5,21)      =        -1.037382         -59.437586
	 D(3,4,21,5)      =         2.073108         118.780357
	 D(3,4,21,22)     =        -2.134648        -122.306323
	 D(3,21,1,5)      =         1.442878          82.670821
	 D(3,21,1,11)     =        -2.750070        -157.567394
	 D(3,21,2,12)     =        -2.079368        -119.139012
	 D(3,21,4,5)      =        -2.073108        -118.780357
	 D(3,21,4,14)     =         2.095179         120.044941
	 D(3,21,5,4)      =         0.672397          38.525527
	 D(3,21,5,15)     =         2.751765         157.664539
	 D(3,21,22,6)     =         2.481142         142.158941
	 D(3,21,22,7)     =         1.273478          72.964920
	 D(3,21,22,8)     =        -0.000000          -0.000000
	 D(3,21,22,9)     =        -1.320902         -75.682119
	 D(3,21,22,10)    =        -2.594380        -148.647039
	 D(4,3,2,12)      =         3.141593         180.000000
	 D(4,3,2,21)      =         1.037382          59.437586
	 D(4,3,21,5)      =        -0.664967         -38.099799
	 D(4,3,21,22)     =         2.134648         122.306323
	 D(4,5,1,11)      =         3.141593         180.000000
	 D(4,5,1,21)      =        -1.005664         -57.620302
	 D(4,5,21,22)     =        -2.140786        -122.658006
	 D(4,21,1,5)      =         0.659832          37.805609
	 D(4,21,1,11)     =         2.750070         157.567394
	 D(4,21,2,12)     =        -2.751765        -157.664539
	 D(4,21,3,13)     =        -2.095179        -120.044941
	 D(4,21,5,15)     =         2.079368         119.139012
	 D(4,21,22,6)     =        -2.481142        -142.158941
	 D(4,21,22,7)     =         2.594380         148.647039
	 D(4,21,22,8)     =         1.320902          75.682119
	 D(4,21,22,9)     =        -0.000000          -0.000000
	 D(4,21,22,10)    =        -1.273478         -72.964920
	 D(5,1,2,12)      =         3.141593         180.000000
	 D(5,1,2,21)      =        -1.005664         -57.620302
	 D(5,1,21,22)     =        -2.090237        -119.761785
	 D(5,4,3,13)      =         3.141593         180.000000
	 D(5,4,3,21)      =         1.057601          60.596073
	 D(5,4,21,22)     =         2.075429         118.913320
	 D(5,21,1,11)     =         2.090237         119.761785
	 D(5,21,2,12)     =         2.758129         158.029138
	 D(5,21,3,13)     =        -2.760146        -158.144740
	 D(5,21,4,14)     =        -2.114898        -121.174702
	 D(5,21,22,6)     =        -1.207663         -69.194020
	 D(5,21,22,7)     =        -2.415327        -138.388040
	 D(5,21,22,8)     =         2.594380         148.647039
	 D(5,21,22,9)     =         1.273478          72.964920
	 D(5,21,22,10)    =        -0.000000          -0.000000
	 D(6,7,8,9)       =         0.000000           0.000000
	 D(6,7,8,18)      =         3.141593         180.000000
	 D(6,7,8,22)      =         1.037382          59.437586
	 D(6,7,22,8)      =        -2.090956        -119.802941
	 D(6,7,22,9)      =        -1.418558         -81.277414
	 D(6,7,22,10)     =        -0.645267         -36.971091
	 D(6,7,22,21)     =         2.051443         117.539053
	 D(6,10,9,8)      =         0.000000           0.000000
	 D(6,10,9,19)     =         3.141593         180.000000
	 D(6,10,9,22)     =        -1.037382         -59.437586
	 D(6,10,22,7)     =         0.645267          36.971091
	 D(6,10,22,8)     =         1.418558          81.277414
	 D(6,10,22,9)     =         2.090956         119.802941
	 D(6,10,22,21)    =        -2.051443        -117.539053
	 D(6,22,7,8)      =         2.090956         119.802941
	 D(6,22,7,17)     =        -2.112862        -121.058047
	 D(6,22,8,7)      =        -0.648904         -37.179487
	 D(6,22,8,9)      =         1.424204          81.600870
	 D(6,22,8,18)     =        -2.763802        -158.354189
	 D(6,22,9,8)      =        -1.424204         -81.600870
	 D(6,22,9,10)     =         0.648904          37.179487
	 D(6,22,9,19)     =         2.763802         158.354189
	 D(6,22,10,9)     =        -2.090956        -119.802941
	 D(6,22,10,20)    =         2.112862         121.058047
	 D(7,6,10,9)      =         0.000000           0.000000
	 D(7,6,10,20)     =         3.141593         180.000000
	 D(7,6,10,22)     =        -1.005664         -57.620302
	 D(7,6,22,8)      =         0.659832          37.805609
	 D(7,6,22,9)      =         1.442878          82.670821
	 D(7,6,22,10)     =         2.102710         120.476430
	 D(7,6,22,21)     =        -2.090237        -119.761785
	 D(7,8,9,10)      =         0.000000           0.000000
	 D(7,8,9,19)      =         3.141593         180.000000
	 D(7,8,9,22)      =         1.057601          60.596073
	 D(7,8,22,9)      =        -2.073108        -118.780357
	 D(7,8,22,10)     =        -1.408141         -80.680558
	 D(7,8,22,21)     =         2.075429         118.913320
	 D(7,22,6,10)     =        -2.102710        -120.476430
	 D(7,22,6,16)     =         2.090237         119.761785
	 D(7,22,8,9)      =         2.073108         118.780357
	 D(7,22,8,18)     =        -2.114898        -121.174702
	 D(7,22,9,8)      =        -0.664967         -38.099799
	 D(7,22,9,10)     =         1.408141          80.680558
	 D(7,22,9,19)     =        -2.760146        -158.144740
	 D(7,22,10,9)     =        -1.445689         -82.831851
	 D(7,22,10,20)    =         2.758129         158.029138
	 D(8,7,6,10)      =         0.000000           0.000000
	 D(8,7,6,16)      =         3.141593         180.000000
	 D(8,7,6,22)      =        -1.005664         -57.620302
	 D(8,7,22,9)      =         0.672397          38.525527
	 D(8,7,22,10)     =         1.445689          82.831851
	 D(8,7,22,21)     =        -2.140786        -122.658006
	 D(8,9,10,20)     =         3.141593         180.000000
	 D(8,9,10,22)     =         1.037382          59.437586
	 D(8,9,22,10)     =        -2.073108        -118.780357
	 D(8,9,22,21)     =         2.134648         122.306323
	 D(8,22,6,10)     =        -1.442878         -82.670821
	 D(8,22,6,16)     =         2.750070         157.567394
	 D(8,22,7,17)     =         2.079368         119.139012
	 D(8,22,9,10)     =         2.073108         118.780357
	 D(8,22,9,19)     =        -2.095179        -120.044941
	 D(8,22,10,9)     =        -0.672397         -38.525527
	 D(8,22,10,20)    =        -2.751765        -157.664539
	 D(9,8,7,17)      =         3.141593         180.000000
	 D(9,8,7,22)      =        -1.037382         -59.437586
	 D(9,8,22,10)     =         0.664967          38.099799
	 D(9,8,22,21)     =        -2.134648        -122.306323
	 D(9,10,6,16)     =         3.141593         180.000000
	 D(9,10,6,22)     =         1.005664          57.620302
	 D(9,10,22,21)    =         2.140786         122.658006
	 D(9,22,6,10)     =        -0.659832         -37.805609
	 D(9,22,6,16)     =        -2.750070        -157.567394
	 D(9,22,7,17)     =         2.751765         157.664539
	 D(9,22,8,18)     =         2.095179         120.044941
	 D(9,22,10,20)    =        -2.079368        -119.139012
	 D(10,6,7,17)     =         3.141593         180.000000
	 D(10,6,7,22)     =         1.005664          57.620302
	 D(10,6,22,21)    =         2.090237         119.761785
	 D(10,9,8,18)     =         3.141593         180.000000
	 D(10,9,8,22)     =        -1.057601         -60.596073
	 D(10,9,22,21)    =        -2.075429        -118.913320
	 D(10,22,6,16)    =        -2.090237        -119.761785
	 D(10,22,7,17)    =        -2.758129        -158.029138
	 D(10,22,8,18)    =         2.760146         158.144740
	 D(10,22,9,19)    =         2.114898         121.174702
	 D(11,1,2,12)     =         0.000000           0.000000
	 D(11,1,2,21)     =         2.135929         122.379698
	 D(11,1,5,15)     =         0.000000           0.000000
	 D(11,1,5,21)     =        -2.135929        -122.379698
	 D(11,1,21,22)    =         0.000000           0.000000
	 D(12,2,1,21)     =        -2.135929        -122.379698
	 D(12,2,3,13)     =         0.000000           0.000000
	 D(12,2,3,21)     =         2.104211         120.562414
	 D(12,2,21,22)    =         0.061418           3.518994
	 D(13,3,2,21)     =        -2.104211        -120.562414
	 D(13,3,4,14)     =         0.000000           0.000000
	 D(13,3,4,21)     =         2.083992         119.403927
	 D(13,3,21,22)    =         0.039469           2.261382
	 D(14,4,3,21)     =        -2.083992        -119.403927
	 D(14,4,5,15)     =         0.000000           0.000000
	 D(14,4,5,21)     =         2.104211         120.562414
	 D(14,4,21,22)    =        -0.039469          -2.261382
	 D(15,5,1,21)     =         2.135929         122.379698
	 D(15,5,4,21)     =        -2.104211        -120.562414
	 D(15,5,21,22)    =        -0.061418          -3.518994
	 D(16,6,7,17)     =        -0.000000          -0.000000
	 D(16,6,7,22)     =        -2.135929        -122.379698
	 D(16,6,10,20)    =         0.000000           0.000000
	 D(16,6,10,22)    =         2.135929         122.379698
	 D(16,6,22,21)    =         0.000000           0.000000
	 D(17,7,6,22)     =         2.135929         122.379698
	 D(17,7,8,18)     =        -0.000000          -0.000000
	 D(17,7,8,22)     =        -2.104211        -120.562414
	 D(17,7,22,21)    =        -0.061418          -3.518994
	 D(18,8,7,22)     =         2.104211         120.562414
	 D(18,8,9,19)     =         0.000000           0.000000
	 D(18,8,9,22)     =        -2.083992        -119.403927
	 D(18,8,22,21)    =        -0.039469          -2.261382
	 D(19,9,8,22)     =         2.083992         119.403927
	 D(19,9,10,20)    =         0.000000           0.000000
	 D(19,9,10,22)    =        -2.104211        -120.562414
	 D(19,9,22,21)    =         0.039469           2.261382
	 D(20,10,6,22)    =        -2.135929        -122.379698
	 D(20,10,9,22)    =         2.104211         120.562414
	 D(20,10,22,21)   =         0.061418           3.518994
	*R(1,6)           =        12.598174           6.666667
	*R(2,7)           =        12.598174           6.666667
	*R(3,8)           =        12.598174           6.666667
	*R(4,9)           =        12.598174           6.666667
	*R(5,10)          =        12.598174           6.666667


	        --- Internal Coordinate Step in ANG or DEG, aJ/ANG or AJ/DEG ---
	-------------------------------------------------------------------------------
	           Coordinate      Previous         Force          Change          New 
	           ----------      --------        ------          ------        ------
	               R(1,2)       1.33000        0.55037        0.04766       1.37766
	               R(1,5)       1.33000        0.55037        0.04766       1.37766
	              R(1,11)       1.08800       -0.05106       -0.00501       1.08299
	              R(1,21)       1.93000        0.53277        0.05998       1.98998
	               R(2,3)       1.33000        0.56296        0.04882       1.37882
	              R(2,12)       1.08800       -0.05085       -0.00499       1.08301
	              R(2,21)       1.90585        0.53462        0.06081       1.96666
	               R(3,4)       1.33000        0.57440        0.04981       1.37981
	              R(3,13)       1.08800       -0.05042       -0.00495       1.08305
	              R(3,21)       1.86611        0.53692        0.06215       1.92826
	               R(4,5)       1.33000        0.56296        0.04882       1.37882
	              R(4,14)       1.08800       -0.05042       -0.00495       1.08305
	              R(4,21)       1.86611        0.53692        0.06215       1.92826
	              R(5,15)       1.08800       -0.05085       -0.00499       1.08301
	              R(5,21)       1.90585        0.53462        0.06081       1.96666
	               R(6,7)       1.33000        0.55037        0.04766       1.37766
	              R(6,10)       1.33000        0.55037        0.04766       1.37766
	              R(6,16)       1.08800       -0.05106       -0.00501       1.08299
	              R(6,22)       1.93000        0.53277        0.05998       1.98998
	               R(7,8)       1.33000        0.56296        0.04882       1.37882
	              R(7,17)       1.08800       -0.05085       -0.00499       1.08301
	              R(7,22)       1.90585        0.53462        0.06081       1.96666
	               R(8,9)       1.33000        0.57440        0.04981       1.37981
	              R(8,18)       1.08800       -0.05042       -0.00495       1.08305
	              R(8,22)       1.86611        0.53692        0.06215       1.92826
	              R(9,10)       1.33000        0.56296        0.04882       1.37882
	              R(9,19)       1.08800       -0.05042       -0.00495       1.08305
	              R(9,22)       1.86611        0.53692        0.06215       1.92826
	             R(10,20)       1.08800       -0.05085       -0.00499       1.08301
	             R(10,22)       1.90585        0.53462        0.06081       1.96666
	             R(21,22)       3.62868       -0.62563       -0.09118       3.53750
	             B(1,2,3)     108.00000        0.00002        0.01880     108.01880
	            B(1,2,12)     126.00000        0.00003        0.04712     126.04712
	            B(1,2,21)      70.69160       -0.00029       -0.15642      70.53518
	             B(1,5,4)     108.00000        0.00002        0.01880     108.01880
	            B(1,5,15)     126.00000        0.00003        0.04712     126.04712
	            B(1,5,21)      70.69160       -0.00029       -0.15642      70.53518
	            B(1,21,2)      40.56859        0.00049        0.17934      40.74793
	            B(1,21,3)      69.04394        0.00093        0.32607      69.37001
	            B(1,21,4)      69.04394        0.00093        0.32607      69.37001
	            B(1,21,5)      40.56859        0.00049        0.17934      40.74793
	           B(1,21,22)     141.91000       -0.00044       -0.07507     141.83493
	             B(2,1,5)     108.00000        0.00005        0.05411     108.05411
	            B(2,1,11)     126.00000       -0.00003       -0.02711     125.97289
	            B(2,1,21)      68.73981       -0.00020       -0.02292      68.71689
	             B(2,3,4)     108.00000       -0.00004       -0.04586     107.95414
	            B(2,3,13)     126.00000        0.00005        0.05713     126.05713
	            B(2,3,21)      70.96413       -0.00033       -0.19669      70.76744
	            B(2,21,3)      41.27616        0.00051        0.17407      41.45023
	            B(2,21,4)      69.56402        0.00095        0.32370      69.88772
	            B(2,21,5)      68.74537        0.00092        0.32573      69.07110
	           B(2,21,22)     142.84606       -0.00048       -0.13853     142.70753
	            B(3,2,12)     126.00000       -0.00005       -0.06607     125.93393
	            B(3,2,21)      67.75970       -0.00019        0.02263      67.78233
	             B(3,4,5)     108.00000       -0.00004       -0.04586     107.95414
	            B(3,4,14)     126.00000       -0.00000       -0.01150     125.98850
	            B(3,4,21)      69.12344       -0.00027       -0.08772      69.03572
	            B(3,21,4)      41.75312        0.00054        0.17544      41.92856
	            B(3,21,5)      69.56402        0.00095        0.32370      69.88772
	           B(3,21,22)     144.48737       -0.00056       -0.25537     144.23200
	            B(4,3,13)     126.00000       -0.00000       -0.01150     125.98850
	            B(4,3,21)      69.12344       -0.00027       -0.08772      69.03572
	            B(4,5,15)     126.00000       -0.00005       -0.06607     125.93393
	            B(4,5,21)      67.75970       -0.00019        0.02263      67.78233
	            B(4,21,5)      41.27616        0.00051        0.17407      41.45023
	           B(4,21,22)     144.48737       -0.00056       -0.25537     144.23200
	            B(5,1,11)     126.00000       -0.00003       -0.02711     125.97289
	            B(5,1,21)      68.73981       -0.00020       -0.02292      68.71689
	            B(5,4,14)     126.00000        0.00005        0.05713     126.05713
	            B(5,4,21)      70.96413       -0.00033       -0.19669      70.76744
	           B(5,21,22)     142.84606       -0.00048       -0.13853     142.70753
	             B(6,7,8)     108.00000        0.00002        0.01880     108.01880
	            B(6,7,17)     126.00000        0.00003        0.04712     126.04712
	            B(6,7,22)      70.69160       -0.00029       -0.15642      70.53518
	            B(6,10,9)     108.00000        0.00002        0.01880     108.01880
	           B(6,10,20)     126.00000        0.00003        0.04712     126.04712
	           B(6,10,22)      70.69160       -0.00029       -0.15642      70.53518
	            B(6,22,7)      40.56859        0.00049        0.17934      40.74793
	            B(6,22,8)      69.04394        0.00093        0.32607      69.37001
	            B(6,22,9)      69.04394        0.00093        0.32607      69.37001
	           B(6,22,10)      40.56859        0.00049        0.17934      40.74793
	           B(6,22,21)     141.91000       -0.00044       -0.07507     141.83493
	            B(7,6,10)     108.00000        0.00005        0.05411     108.05411
	            B(7,6,16)     126.00000       -0.00003       -0.02711     125.97289
	            B(7,6,22)      68.73981       -0.00020       -0.02292      68.71689
	             B(7,8,9)     108.00000       -0.00004       -0.04586     107.95414
	            B(7,8,18)     126.00000        0.00005        0.05713     126.05713
	            B(7,8,22)      70.96413       -0.00033       -0.19669      70.76744
	            B(7,22,8)      41.27616        0.00051        0.17406      41.45023
	            B(7,22,9)      69.56402        0.00095        0.32370      69.88772
	           B(7,22,10)      68.74537        0.00092        0.32573      69.07110
	           B(7,22,21)     142.84606       -0.00048       -0.13853     142.70753
	            B(8,7,17)     126.00000       -0.00005       -0.06607     125.93393
	            B(8,7,22)      67.75970       -0.00019        0.02263      67.78233
	            B(8,9,10)     108.00000       -0.00004       -0.04586     107.95414
	            B(8,9,19)     126.00000       -0.00000       -0.01150     125.98850
	            B(8,9,22)      69.12344       -0.00027       -0.08772      69.03572
	            B(8,22,9)      41.75312        0.00054        0.17544      41.92856
	           B(8,22,10)      69.56402        0.00095        0.32370      69.88772
	           B(8,22,21)     144.48737       -0.00056       -0.25537     144.23200
	            B(9,8,18)     126.00000       -0.00000       -0.01150     125.98850
	            B(9,8,22)      69.12344       -0.00027       -0.08772      69.03572
	           B(9,10,20)     126.00000       -0.00005       -0.06607     125.93393
	           B(9,10,22)      67.75970       -0.00019        0.02263      67.78233
	           B(9,22,10)      41.27616        0.00051        0.17406      41.45023
	           B(9,22,21)     144.48737       -0.00056       -0.25537     144.23200
	           B(10,6,16)     126.00000       -0.00003       -0.02711     125.97289
	           B(10,6,22)      68.73981       -0.00020       -0.02292      68.71689
	           B(10,9,19)     126.00000        0.00005        0.05713     126.05713
	           B(10,9,22)      70.96413       -0.00033       -0.19669      70.76744
	          B(10,22,21)     142.84606       -0.00048       -0.13853     142.70753
	           B(11,1,21)     128.09000        0.00021       -0.01549     128.07451
	           B(12,2,21)     127.10190        0.00024        0.03598     127.13788
	           B(13,3,21)     125.49153        0.00030        0.12394     125.61546
	           B(14,4,21)     125.49153        0.00030        0.12394     125.61546
	           B(15,5,21)     127.10190        0.00024        0.03598     127.13788
	           B(16,6,22)     128.09000        0.00021       -0.01549     128.07451
	           B(17,7,22)     127.10190        0.00024        0.03598     127.13788
	           B(18,8,22)     125.49153        0.00030        0.12394     125.61546
	           B(19,9,22)     125.49153        0.00030        0.12394     125.61546
	          B(20,10,22)     127.10190        0.00024        0.03598     127.13788
	           D(1,2,3,4)       0.00000        0.00000        0.00000       0.00000
	          D(1,2,3,13)     180.00000        0.00032        0.16440     180.16440
	          D(1,2,3,21)     -59.43759        0.00049        0.19337     -59.24421
	          D(1,2,21,3)     119.80294        0.00034        0.11444     119.91738
	          D(1,2,21,4)      81.27741        0.00028        0.10633      81.38375
	          D(1,2,21,5)      36.97109        0.00001        0.01822      36.98931
	         D(1,2,21,22)    -117.53905        0.00004       -0.11123    -117.65029
	           D(1,5,4,3)       0.00000       -0.00000       -0.00000      -0.00000
	          D(1,5,4,14)     180.00000       -0.00032       -0.16440     179.83560
	          D(1,5,4,21)      59.43759       -0.00049       -0.19337      59.24421
	          D(1,5,21,2)     -36.97109       -0.00001       -0.01822     -36.98931
	          D(1,5,21,3)     -81.27741       -0.00028       -0.10633     -81.38375
	          D(1,5,21,4)    -119.80294       -0.00034       -0.11444    -119.91738
	         D(1,5,21,22)     117.53905       -0.00004        0.11123     117.65029
	          D(1,21,2,3)    -119.80294       -0.00034       -0.11444    -119.91738
	         D(1,21,2,12)     121.05805       -0.00014       -0.04431     121.01374
	          D(1,21,3,2)      37.17949        0.00002        0.01464      37.19412
	          D(1,21,3,4)     -81.60087       -0.00029       -0.10556     -81.70643
	         D(1,21,3,13)     158.35419       -0.00012       -0.03484     158.31935
	          D(1,21,4,3)      81.60087        0.00029        0.10556      81.70643
	          D(1,21,4,5)     -37.17949       -0.00002       -0.01464     -37.19412
	         D(1,21,4,14)    -158.35419        0.00012        0.03484    -158.31935
	          D(1,21,5,4)     119.80294        0.00034        0.11444     119.91738
	         D(1,21,5,15)    -121.05805        0.00014        0.04431    -121.01374
	         D(1,21,22,6)       0.00000       -0.00000       -0.00000      -0.00000
	         D(1,21,22,7)     -69.19402       -0.00009       -0.14538     -69.33940
	         D(1,21,22,8)    -142.15894       -0.00006       -0.09825    -142.25719
	         D(1,21,22,9)     142.15894        0.00006        0.09825     142.25719
	        D(1,21,22,10)      69.19402        0.00009        0.14538      69.33940
	           D(2,1,5,4)       0.00000        0.00000        0.00000       0.00000
	          D(2,1,5,15)     180.00000       -0.00030       -0.13238     179.86762
	          D(2,1,5,21)      57.62030       -0.00042       -0.07919      57.54111
	          D(2,1,21,3)     -37.80561       -0.00003       -0.00635     -37.81195
	          D(2,1,21,4)     -82.67082       -0.00032       -0.09368     -82.76450
	          D(2,1,21,5)    -120.47643       -0.00034       -0.10003    -120.57646
	         D(2,1,21,22)     119.76178       -0.00017       -0.05001     119.71177
	           D(2,3,4,5)       0.00000        0.00000        0.00000       0.00000
	          D(2,3,4,14)     180.00000        0.00032        0.16421     180.16421
	          D(2,3,4,21)     -60.59607        0.00053        0.26353     -60.33255
	          D(2,3,21,4)     118.78036        0.00031        0.12020     118.90056
	          D(2,3,21,5)      80.68056        0.00026        0.11084      80.79140
	         D(2,3,21,22)    -118.91332        0.00007       -0.05391    -118.96722
	          D(2,21,1,5)     120.47643        0.00034        0.10003     120.57646
	         D(2,21,1,11)    -119.76178        0.00017        0.05001    -119.71177
	          D(2,21,3,4)    -118.78036       -0.00031       -0.12020    -118.90056
	         D(2,21,3,13)     121.17470       -0.00014       -0.04948     121.12523
	          D(2,21,4,3)      38.09980        0.00005        0.00936      38.10915
	          D(2,21,4,5)     -80.68056       -0.00026       -0.11084     -80.79140
	         D(2,21,4,14)     158.14474       -0.00013       -0.06137     158.08337
	          D(2,21,5,4)      82.83185        0.00033        0.09622      82.92807
	         D(2,21,5,15)    -158.02914        0.00013        0.02609    -158.00305
	         D(2,21,22,6)      69.19402        0.00009        0.14538      69.33940
	         D(2,21,22,7)      -0.00000       -0.00000        0.00000      -0.00000
	         D(2,21,22,8)     -72.96492        0.00003        0.04713     -72.91779
	         D(2,21,22,9)    -148.64704        0.00016        0.24362    -148.40341
	        D(2,21,22,10)     138.38804        0.00019        0.29075     138.67879
	           D(3,2,1,5)       0.00000       -0.00000       -0.00000      -0.00000
	          D(3,2,1,11)     180.00000       -0.00029       -0.11244     179.88756
	          D(3,2,1,21)      57.62030       -0.00042       -0.07926      57.54104
	          D(3,2,21,4)     -38.52553       -0.00006       -0.00810     -38.53363
	          D(3,2,21,5)     -82.83185       -0.00033       -0.09622     -82.92807
	         D(3,2,21,22)     122.65801       -0.00030       -0.22567     122.43233
	          D(3,4,5,15)     180.00000        0.00030        0.13222     180.13222
	          D(3,4,5,21)     -59.43759        0.00049        0.19333     -59.24426
	          D(3,4,21,5)     118.78036        0.00031        0.12020     118.90056
	         D(3,4,21,22)    -122.30632        0.00024        0.17410    -122.13222
	          D(3,21,1,5)      82.67082        0.00032        0.09368      82.76450
	         D(3,21,1,11)    -157.56739        0.00014        0.04367    -157.52373
	         D(3,21,2,12)    -119.13901        0.00019        0.07013    -119.06888
	          D(3,21,4,5)    -118.78036       -0.00031       -0.12020    -118.90056
	         D(3,21,4,14)     120.04494       -0.00017       -0.07072     119.97422
	          D(3,21,5,4)      38.52553        0.00006        0.00810      38.53363
	         D(3,21,5,15)     157.66454       -0.00013       -0.06203     157.60251
	         D(3,21,22,6)     142.15894        0.00006        0.09825     142.25719
	         D(3,21,22,7)      72.96492       -0.00003       -0.04713      72.91779
	         D(3,21,22,8)      -0.00000        0.00000        0.00000       0.00000
	         D(3,21,22,9)     -75.68212        0.00012        0.19650     -75.48562
	        D(3,21,22,10)    -148.64704        0.00016        0.24362    -148.40341
	          D(4,3,2,12)     180.00000       -0.00030       -0.13222     179.86778
	          D(4,3,2,21)      59.43759       -0.00049       -0.19333      59.24426
	          D(4,3,21,5)     -38.09980       -0.00005       -0.00935     -38.10915
	         D(4,3,21,22)     122.30632       -0.00024       -0.17410     122.13222
	          D(4,5,1,11)     180.00000        0.00029        0.11244     180.11244
	          D(4,5,1,21)     -57.62030        0.00042        0.07926     -57.54104
	         D(4,5,21,22)    -122.65801        0.00030        0.22567    -122.43233
	          D(4,21,1,5)      37.80561        0.00003        0.00635      37.81195
	         D(4,21,1,11)     157.56739       -0.00014       -0.04367     157.52373
	         D(4,21,2,12)    -157.66454        0.00013        0.06203    -157.60251
	         D(4,21,3,13)    -120.04494        0.00017        0.07072    -119.97422
	         D(4,21,5,15)     119.13901       -0.00019       -0.07013     119.06888
	         D(4,21,22,6)    -142.15894       -0.00006       -0.09825    -142.25719
	         D(4,21,22,7)     148.64704       -0.00016       -0.24362     148.40341
	         D(4,21,22,8)      75.68212       -0.00012       -0.19650      75.48562
	         D(4,21,22,9)      -0.00000       -0.00000        0.00000      -0.00000
	        D(4,21,22,10)     -72.96492        0.00003        0.04713     -72.91779
	          D(5,1,2,12)     180.00000        0.00030        0.13238     180.13238
	          D(5,1,2,21)     -57.62030        0.00042        0.07919     -57.54111
	         D(5,1,21,22)    -119.76178        0.00017        0.05001    -119.71177
	          D(5,4,3,13)     180.00000       -0.00032       -0.16421     179.83579
	          D(5,4,3,21)      60.59607       -0.00053       -0.26353      60.33255
	         D(5,4,21,22)     118.91332       -0.00007        0.05391     118.96723
	         D(5,21,1,11)     119.76178       -0.00017       -0.05001     119.71177
	         D(5,21,2,12)     158.02914       -0.00013       -0.02609     158.00305
	         D(5,21,3,13)    -158.14474        0.00013        0.06137    -158.08337
	         D(5,21,4,14)    -121.17470        0.00014        0.04948    -121.12523
	         D(5,21,22,6)     -69.19402       -0.00009       -0.14538     -69.33940
	         D(5,21,22,7)    -138.38804       -0.00019       -0.29075    -138.67879
	         D(5,21,22,8)     148.64704       -0.00016       -0.24362     148.40341
	         D(5,21,22,9)      72.96492       -0.00003       -0.04713      72.91779
	        D(5,21,22,10)      -0.00000        0.00000        0.00000       0.00000
	           D(6,7,8,9)       0.00000        0.00000       -0.00000      -0.00000
	          D(6,7,8,18)     180.00000       -0.00032       -0.16440     179.83560
	          D(6,7,8,22)      59.43759       -0.00049       -0.19337      59.24421
	          D(6,7,22,8)    -119.80294       -0.00034       -0.11444    -119.91738
	          D(6,7,22,9)     -81.27741       -0.00028       -0.10633     -81.38375
	         D(6,7,22,10)     -36.97109       -0.00001       -0.01822     -36.98931
	         D(6,7,22,21)     117.53905       -0.00004        0.11123     117.65029
	          D(6,10,9,8)       0.00000       -0.00000        0.00000       0.00000
	         D(6,10,9,19)     180.00000        0.00032        0.16440     180.16440
	         D(6,10,9,22)     -59.43759        0.00049        0.19337     -59.24421
	         D(6,10,22,7)      36.97109        0.00001        0.01822      36.98931
	         D(6,10,22,8)      81.27741        0.00028        0.10633      81.38375
	         D(6,10,22,9)     119.80294        0.00034        0.11444     119.91738
	        D(6,10,22,21)    -117.53905        0.00004       -0.11123    -117.65029
	          D(6,22,7,8)     119.80294        0.00034        0.11444     119.91738
	         D(6,22,7,17)    -121.05805        0.00014        0.04431    -121.01374
	          D(6,22,8,7)     -37.17949       -0.00002       -0.01464     -37.19412
	          D(6,22,8,9)      81.60087        0.00029        0.10556      81.70643
	         D(6,22,8,18)    -158.35419        0.00012        0.03484    -158.31935
	          D(6,22,9,8)     -81.60087       -0.00029       -0.10556     -81.70643
	         D(6,22,9,10)      37.17949        0.00002        0.01464      37.19412
	         D(6,22,9,19)     158.35419       -0.00012       -0.03484     158.31935
	         D(6,22,10,9)    -119.80294       -0.00034       -0.11444    -119.91738
	        D(6,22,10,20)     121.05805       -0.00014       -0.04431     121.01374
	          D(7,6,10,9)       0.00000        0.00000       -0.00000      -0.00000
	         D(7,6,10,20)     180.00000        0.00030        0.13238     180.13238
	         D(7,6,10,22)     -57.62030        0.00042        0.07919     -57.54111
	          D(7,6,22,8)      37.80561        0.00003        0.00635      37.81195
	          D(7,6,22,9)      82.67082        0.00032        0.09368      82.76450
	         D(7,6,22,10)     120.47643        0.00034        0.10003     120.57646
	         D(7,6,22,21)    -119.76178        0.00017        0.05001    -119.71177
	          D(7,8,9,10)       0.00000        0.00000        0.00000       0.00000
	          D(7,8,9,19)     180.00000       -0.00032       -0.16421     179.83579
	          D(7,8,9,22)      60.59607       -0.00053       -0.26353      60.33255
	          D(7,8,22,9)    -118.78036       -0.00031       -0.12020    -118.90055
	         D(7,8,22,10)     -80.68056       -0.00026       -0.11084     -80.79140
	         D(7,8,22,21)     118.91332       -0.00007        0.05391     118.96722
	         D(7,22,6,10)    -120.47643       -0.00034       -0.10003    -120.57646
	         D(7,22,6,16)     119.76178       -0.00017       -0.05001     119.71177
	          D(7,22,8,9)     118.78036        0.00031        0.12020     118.90055
	         D(7,22,8,18)    -121.17470        0.00014        0.04948    -121.12523
	          D(7,22,9,8)     -38.09980       -0.00005       -0.00935     -38.10915
	         D(7,22,9,10)      80.68056        0.00026        0.11084      80.79140
	         D(7,22,9,19)    -158.14474        0.00013        0.06137    -158.08337
	         D(7,22,10,9)     -82.83185       -0.00033       -0.09622     -82.92807
	        D(7,22,10,20)     158.02914       -0.00013       -0.02609     158.00305
	          D(8,7,6,10)       0.00000       -0.00000        0.00000       0.00000
	          D(8,7,6,16)     180.00000        0.00029        0.11244     180.11244
	          D(8,7,6,22)     -57.62030        0.00042        0.07926     -57.54104
	          D(8,7,22,9)      38.52553        0.00006        0.00810      38.53363
[...]
	         D(7,8,22,21)     120.63701        0.00001        0.39099     121.02800
	         D(7,22,6,10)    -117.82880       -0.00001        0.45630    -117.37250
	         D(7,22,6,16)     121.24795       -0.00001        0.11431     121.36226
	          D(7,22,8,9)     117.29128        0.00001       -0.17319     117.11808
	         D(7,22,8,18)    -121.51391       -0.00000       -0.06165    -121.57556
	          D(7,22,9,8)     -37.55132       -0.00000        0.06762     -37.48370
	         D(7,22,9,10)      79.71492       -0.00000       -0.12919      79.58573
	         D(7,22,9,19)    -158.73559       -0.00000       -0.14576    -158.88135
	         D(7,22,10,9)     -80.21690       -0.00002        0.32839     -79.88851
	        D(7,22,10,20)     158.53552        0.00000        0.34245     158.87797
	          D(8,7,6,10)       0.00151       -0.00000       -0.00025       0.00126
	          D(8,7,6,16)     179.95883        0.00000       -0.42163     179.53719
	          D(8,7,6,22)     -61.51619        0.00001       -0.61304     -62.12924
	          D(8,7,22,9)      37.70319        0.00000       -0.12828      37.57491
	         D(8,7,22,10)      80.28160        0.00001       -0.34285      79.93875
	         D(8,7,22,21)    -122.07141        0.00002        0.30055    -121.77085
	         D(8,9,10,20)     180.16387       -0.00001        0.35673     180.52059
	         D(8,9,10,22)      62.22750       -0.00002        0.33165      62.55916
	         D(8,9,22,10)    -117.26624       -0.00000        0.19681    -117.06943
	         D(8,9,22,21)     121.84544       -0.00001       -0.20552     121.63993
	         D(8,22,6,10)     -80.31445       -0.00001        0.38680     -79.92765
	         D(8,22,6,16)     158.76229       -0.00001        0.04481     158.80711
	         D(8,22,7,17)     121.04195       -0.00001        0.16649     121.20844
	         D(8,22,9,10)     117.26624        0.00000       -0.19681     117.06943
	         D(8,22,9,19)    -121.18427        0.00000       -0.21338    -121.39765
	         D(8,22,10,9)     -37.70139       -0.00001        0.11584     -37.58554
	        D(8,22,10,20)    -158.94896        0.00001        0.12990    -158.81906
	          D(9,8,7,17)     179.92246        0.00000       -0.41168     179.51079
	          D(9,8,7,22)     -62.07461        0.00002       -0.33365     -62.40826
	         D(9,8,22,10)      37.59907        0.00001       -0.05511      37.54397
	         D(9,8,22,21)    -122.07171        0.00001        0.21779    -121.85392
	         D(9,10,6,16)     180.04081       -0.00000        0.42164     180.46245
	         D(9,10,6,22)      61.60937       -0.00001        0.61068      62.22005
	        D(9,10,22,21)     122.21796       -0.00002       -0.31373     121.90424
	         D(9,22,6,10)     -37.59286        0.00000        0.08103     -37.51184
	         D(9,22,6,16)    -158.51612        0.00000       -0.26097    -158.77709
	         D(9,22,7,17)     158.74514       -0.00001        0.03821     158.78335
	         D(9,22,8,18)     121.19481       -0.00001        0.11155     121.30635
	        D(9,22,10,20)    -121.24758        0.00002        0.01406    -121.23352
	         D(10,6,7,17)     180.07827       -0.00000        0.41191     180.49018
	         D(10,6,7,22)      61.51770       -0.00001        0.61279      62.13049
	        D(10,6,22,21)     121.22998       -0.00000        0.22707     121.45705
	         D(10,9,8,18)     179.76494        0.00001       -0.34545     179.41948
	         D(10,9,8,22)     -62.53858        0.00002       -0.13823     -62.67681
	        D(10,9,22,21)    -120.88831       -0.00001       -0.40232    -121.29064
	        D(10,22,6,16)    -120.92326       -0.00000       -0.34199    -121.26525
	        D(10,22,7,17)    -158.67645        0.00000       -0.17636    -158.85281
	        D(10,22,8,18)     158.79388       -0.00000        0.05644     158.85032
	        D(10,22,9,19)     121.54949        0.00000       -0.01657     121.53291
	         D(11,1,2,12)      -0.03737        0.00000        0.00999      -0.02738
	         D(11,1,2,21)     118.52426        0.00001       -0.19108     118.33319
	         D(11,1,5,15)       0.12191       -0.00000       -0.06395       0.05796
	         D(11,1,5,21)    -118.43092       -0.00001        0.18907    -118.24185
	        D(11,1,21,22)      -0.30676        0.00000        0.11466      -0.19210
	         D(12,2,1,21)    -118.56163       -0.00001        0.20106    -118.36057
	         D(12,2,3,13)      -0.15897        0.00000        0.06619      -0.09278
	         D(12,2,3,21)     118.00217        0.00001        0.07850     118.08067
	        D(12,2,21,22)       1.05687       -0.00001       -0.45974       0.59713
	         D(13,3,2,21)    -118.16114       -0.00001       -0.01231    -118.17345
	         D(13,3,4,14)      -0.05918        0.00000        0.03480      -0.02438
	         D(13,3,4,21)     117.69690        0.00002        0.20733     117.90423
	        D(13,3,21,22)       0.89459       -0.00001       -0.32463       0.56995
	         D(14,4,3,21)    -117.75608       -0.00002       -0.17253    -117.92861
	         D(14,4,5,15)       0.13349       -0.00000       -0.04696       0.08653
	         D(14,4,5,21)     118.06866        0.00001       -0.02161     118.04704
	        D(14,4,21,22)      -0.67854        0.00001        0.41496      -0.26358
	         D(15,5,1,21)     118.55284        0.00001       -0.25302     118.29981
	         D(15,5,4,21)    -117.93517       -0.00001       -0.02535    -117.96051
	        D(15,5,21,22)      -0.99795        0.00000        0.29182      -0.70613
	         D(16,6,7,17)       0.03559       -0.00000       -0.00947       0.02611
	         D(16,6,7,22)    -118.52498       -0.00001        0.19141    -118.33357
	        D(16,6,10,20)      -0.12088        0.00000        0.06388      -0.05701
	        D(16,6,10,22)     118.43144        0.00001       -0.18904     118.24240
	        D(16,6,22,21)       0.30672       -0.00000       -0.11492       0.19180
	         D(17,7,6,22)     118.56057        0.00001       -0.20088     118.35968
	         D(17,7,8,18)       0.15690       -0.00000       -0.06582       0.09107
	         D(17,7,8,22)    -118.00293       -0.00001       -0.07803    -118.08096
	        D(17,7,22,21)      -1.02946        0.00001        0.46704      -0.56241
	         D(18,8,7,22)     118.15983        0.00001        0.01220     118.17203
	         D(18,8,9,19)       0.05955       -0.00000       -0.03511       0.02444
	         D(18,8,9,22)    -117.69648       -0.00002       -0.20723    -117.90371
	        D(18,8,22,21)      -0.87691        0.00001        0.32934      -0.54756
	         D(19,9,8,22)     117.75603        0.00002        0.17212     117.92815
	        D(19,9,10,20)      -0.13104        0.00000        0.04647      -0.08457
	        D(19,9,10,22)    -118.06740       -0.00001        0.02139    -118.04601
	        D(19,9,22,21)       0.66117       -0.00001       -0.41889       0.24228
	        D(20,10,6,22)    -118.55232       -0.00001        0.25292    -118.29941
	        D(20,10,9,22)     117.93636        0.00001        0.02507     117.96144
	       D(20,10,22,21)       0.97038       -0.00000       -0.29967       0.67072
	              *R(1,6)       6.16679        0.00000       -0.00002       6.16676
	              *R(2,7)       6.16679        0.00000       -0.00001       6.16678
	              *R(3,8)       6.16679       -0.00000        0.00002       6.16681
	              *R(4,9)       6.16681       -0.00000        0.00002       6.16684
	             *R(5,10)       6.16685        0.00000       -0.00001       6.16684
	-------------------------------------------------------------------------------

	                                 ==> Convergence Check <==                                  
    
	Measures of convergence in internal coordinates in au.
    
	Criteria marked as inactive (o), active & met (*), and active & unmet ( ).

	----------------------------------------------------------------------------------------------
	   Step    Total Energy     Delta E     Max Force     RMS Force      Max Disp      RMS Disp   
	----------------------------------------------------------------------------------------------
	  Convergence Criteria     1.00e-06 *    3.00e-04 *             o    1.20e-03 *             o
	----------------------------------------------------------------------------------------------
	    14    -787.43032848   -2.73e-02      7.70e-03      1.20e-03 o    1.53e-01      1.54e-02 o  ~
	----------------------------------------------------------------------------------------------

Next Geometry in Ang 
	Fragment 1 (Ang)

	    C   3.0833587003   0.9813994756  -0.7109992157
	    C   3.0833814822   0.9807164396   0.7076010246
	    C   3.0834158468  -0.3688504627   1.1453515206
	    C   3.0834234515  -1.2021938879  -0.0031621318
	    C   3.0834060458  -0.3673302730  -1.1503873549
	    C  -3.0834045857   0.9816244434  -0.7111340386
	    C  -3.0833958070   0.9809349768   0.7074681409
	    C  -3.0833930262  -0.3686332658   1.1452116986
	    C  -3.0834118821  -1.2019722161  -0.0033036343
	    C  -3.0834368755  -0.3671079141  -1.1505271421
	    H   3.0903509827   1.8537884700  -1.3441449006
	    H   3.0908091441   1.8522895247   1.3418815867
	    H   3.0922829515  -0.7027992518   2.1702641427
	    H   3.0926682778  -2.2801328092  -0.0036587554
	    H   3.0913209377  -0.6997586574  -2.1757887767
	    H  -3.0904529438   1.8540145139  -1.3442781894
	    H  -3.0908320740   1.8525049530   1.3417532236
	    H  -3.0922095987  -0.7025876248   2.1701228685
	    H  -3.0926171468  -2.2799114343  -0.0037998301
	    H  -3.0913798306  -0.6995315238  -2.1759299287
	   Mg   1.2159285136  -0.0065825820   0.0018397590
	   Mg  -1.2159153994  -0.0062845764   0.0016371773


    Structure for next step:
    Molecular point group: c1
    Full point group: C1

    Geometry (in Angstrom), charge = 0, multiplicity = 1:

    C       
    C             1         dcc
    C             2         dcc      1  107.998767
    C             3         dcc      2  107.992868      1    0.000389
    C             4         dcc      3  107.991662      2    0.000521
    C             1         drr      2   90.002174      3   90.003250
    C             2         drr      3   90.003700      4   89.999324
    C             3         drr      4   90.000441      5   89.996765
    C             8         dcc      7  107.992965      6   -0.000501
    C             9         dcc      8  107.991785      7   -0.000449
    H             1         dch      2  125.997376      3 -179.538789
    H             2         dch      3  125.982855      4 -179.511228
    H             3         dch      4  125.987302      5 -179.418147
    H             4         dch      5  126.016369      1 -179.394786
    H             5         dch      1  126.005781      2 -179.479755
    H             6         dch      7  125.997532      8  179.537194
    H             7         dch      8  125.982858      9  179.510787
    H             8         dch      9  125.987194     10  179.419485
    H             9         dch     10  126.016450      6  179.396057
    H            10         dch      6  126.005662      7  179.479008
    MG            1        dcbe     11       achbe      6    0.104941
    MG            6        dcbe     16       achbe      1   -0.104816

    achbe     =  123.4916574760
    dcbe      =    2.2296912114
    dcc       =    1.4188446638
    dch       =    1.0779700467
    drr       =    6.1668088784


Scratch directory: /tmp/929361.5.gen4.q/
gradient() will perform analytic gradient computation.
   => Libint2 <=

    Primary   basis highest AM E, G, H:  5, 4, 3
    Auxiliary basis highest AM E, G, H:  6, 5, 4
    Onebody   basis highest AM E, G, H:  6, 5, 4
    Solid Harmonics ordering:            gaussian

*** tstart() called on n062
*** at Wed Aug 23 17:21:59 2023

   => Loading Basis Set <=

    Name: CC-PVTZ
    Role: ORBITAL
    Keyword: BASIS
    atoms 1-10  entry C          line   186 file /opt/psi/4/1.9a/share/psi4/basis/cc-pvtz.gbs 
    atoms 11-20 entry H          line    23 file /opt/psi/4/1.9a/share/psi4/basis/cc-pvtz.gbs 
    atoms 21-22 entry MG         line   465 file /opt/psi/4/1.9a/share/psi4/basis/cc-pvtz.gbs 


         ---------------------------------------------------------
                                   SCF
               by Justin Turney, Rob Parrish, Andy Simmonett
                          and Daniel G. A. Smith
                              RKS Reference
                        4 Threads,    500 MiB Core
         ---------------------------------------------------------

  ==> Geometry <==

    Molecular point group: c1
    Full point group: C1

    Geometry (in Angstrom), charge = 0, multiplicity = 1:

       Center              X                  Y                   Z               Mass       
    ------------   -----------------  -----------------  -----------------  -----------------
         C            3.083401132952     0.979179275026    -0.710329872164    12.000000000000
         C            3.083401132952     0.979179275026     0.708514791682    12.000000000000
         C            3.083401132952    -0.370231619429     1.146932877586    12.000000000000
         C            3.083410288465    -1.204039994645    -0.001058312911    12.000000000000
         C            3.083428207526    -0.369729427116    -1.148684583398    12.000000000000
         C           -3.083407731116     0.979529056163    -0.710563839561    12.000000000000
         C           -3.083407731551     0.979522625834     0.708282766907    12.000000000000
         C           -3.083407731361    -0.369889613267     1.146693915870    12.000000000000
         C           -3.083419522650    -1.203694260178    -0.001299982534    12.000000000000
         C           -3.083437372104    -0.369382427606    -1.148925333349    12.000000000000
         H            3.090421353763     1.851276127060    -1.343904823303     1.007825032230
         H            3.090836311652     1.851062299321     1.342379234290     1.007825032230
         H            3.092244920953    -0.703683211299     2.171994458581     1.007825032230
         H            3.092633218202    -2.281970585452    -0.001035775834     1.007825032230
         H            3.091352827961    -0.702908342595    -2.173842343067     1.007825032230
         H           -3.090452227171     1.851626856075    -1.344137216529     1.007825032230
         H           -3.090847917059     1.851402528265     1.342151444880     1.007825032230
         H           -3.092230562718    -0.703346616925     2.171753916991     1.007825032230
         H           -3.092624773889    -2.281625002095    -0.001277222262     1.007825032230
         H           -3.091374004635    -0.702555185621    -2.174085001264     1.007825032230
         MG           1.215943847051    -0.008420202227     0.002953701354    23.985041697000
         MG          -1.215923021578    -0.008041001280     0.002688668088    23.985041697000

  Running in c1 symmetry.

  Rotational constants: A =      0.07413  B =      0.01186  C =      0.01186 [cm^-1]
  Rotational constants: A =   2222.45286  B =    355.44492  C =    355.43767 [MHz]
  Nuclear repulsion =  720.123459006665712

  Charge       = 0
  Multiplicity = 1
  Electrons    = 94
  Nalpha       = 47
  Nbeta        = 47

  ==> Algorithm <==

  SCF Algorithm Type is DF.
  DIIS enabled.
  MOM disabled.
  Fractional occupation disabled.
  Guess Type is READ.
  Energy threshold   = 1.00e-08
  Density threshold  = 1.00e-08
  Integral threshold = 1.00e-12

  ==> Primary Basis <==

  Basis Set: CC-PVTZ
    Blend: CC-PVTZ
    Number of shells: 184
    Number of basis functions: 508
    Number of Cartesian functions: 578
    Spherical Harmonics?: true
    Max angular momentum: 3

  ==> DFT Potential <==

   => LibXC <=

    Version 6.1.0
    S. Lehtola, C. Steigemann, M. J.T. Oliveira, and M. A.L. Marques.,  SoftwareX 7, 1–5 (2018) (10.1016/j.softx.2017.11.002)

   => Composite Functional: B3LYP <= 

    B3LYP Hyb-GGA Exchange-Correlation Functional

    P. J. Stephens, F. J. Devlin, C. F. Chabalowski, and M. J. Frisch.,  J. Phys. Chem. 98, 11623 (1994) (10.1021/j100096a001)

    Deriv               =              1
    GGA                 =           TRUE
    Meta                =          FALSE

    Exchange Hybrid     =           TRUE
    MP2 Hybrid          =          FALSE

   => Exchange Functionals <=

    0.0800   Slater exchange
    0.7200         Becke 88

   => Exact (HF) Exchange <=

    0.2000               HF 

   => Correlation Functionals <=

    0.1900   Vosko, Wilk & Nusair (VWN5_RPA)
    0.8100   Lee, Yang & Parr

   => LibXC Density Thresholds  <==

    XC_HYB_GGA_XC_B3LYP:  1.00E-15 

   => Molecular Quadrature <=

    Radial Scheme          =       TREUTLER
    Pruning Scheme         =           NONE
    Nuclear Scheme         =       TREUTLER

    Blocking Scheme        =         OCTREE
    BS radius alpha        =              1
    Pruning alpha          =              1
    Radial Points          =             75
    Spherical Points       =            302
    Total Points           =         460097
    Total Blocks           =           3364
    Max Points             =            256
    Max Functions          =            396
    Weights Tolerance      =       1.00E-15

   => Loading Basis Set <=

    Name: (CC-PVTZ AUX)
    Role: JKFIT
    Keyword: DF_BASIS_SCF
    atoms 1-10  entry C          line   125 file /opt/psi/4/1.9a/share/psi4/basis/cc-pvtz-jkfit.gbs 
    atoms 11-20 entry H          line    51 file /opt/psi/4/1.9a/share/psi4/basis/cc-pvtz-jkfit.gbs 
    atoms 21-22 entry MG         line   576 file /opt/psi/4/1.9a/share/psi4/basis/def2-universal-jkfit.gbs 

   => Loading Basis Set <=

    Name: CC-PVTZ
    Role: ORBITAL
    Keyword: BASIS
    atoms 1-10  entry C          line   186 file /opt/psi/4/1.9a/share/psi4/basis/cc-pvtz.gbs 
    atoms 11-20 entry H          line    23 file /opt/psi/4/1.9a/share/psi4/basis/cc-pvtz.gbs 
    atoms 21-22 entry MG         line   465 file /opt/psi/4/1.9a/share/psi4/basis/cc-pvtz.gbs 

  Reading orbitals from file /tmp/929361.5.gen4.q/output.default.29365.180.npy, no projection.

  ==> Integral Setup <==

  ==> DiskDFJK: Density-Fitted J/K Matrices <==

    J tasked:                  Yes
    K tasked:                  Yes
    wK tasked:                  No
    OpenMP threads:              4
    Integrals threads:           4
    Memory [MiB]:              337
    Algorithm:                Disk
    Integral Cache:           NONE
    Schwarz Cutoff:          1E-12
    Fitting Condition:       1E-10

   => Auxiliary Basis Set <=

  Basis Set: (CC-PVTZ AUX)
    Blend: CC-PVTZ-JKFIT + DEF2-UNIVERSAL-JKFIT
    Number of shells: 418
    Number of basis functions: 1314
    Number of Cartesian functions: 1584
    Spherical Harmonics?: true
    Max angular momentum: 4

  Cached 1.0% of DFT collocation blocks in 0.031 [GiB].

  Minimum eigenvalue in the overlap matrix is 1.0048053591E-04.
  Reciprocal condition number of the overlap matrix is 9.4551167879E-06.
    Using symmetric orthogonalization.

  ==> Pre-Iterations <==

  SCF Guess: Orbitals guess was supplied from a previous computation.

   -------------------------------------------------------
    Irrep   Nso     Nmo     Nalpha   Nbeta   Ndocc  Nsocc
   -------------------------------------------------------
     A        508     508      47      47      47       0
   -------------------------------------------------------
    Total     508     508      47      47      47       0
   -------------------------------------------------------

  ==> Iterations <==

                           Total Energy        Delta E     RMS |[F,P]|

   @DF-RKS iter   0:  -787.41765489209581   -7.87418e+02   2.92838e-04 
   @DF-RKS iter   1:  -787.43312253234274   -1.54676e-02   1.66343e-05 DIIS
