
    -----------------------------------------------------------------------
          Psi4: An Open-Source Ab Initio Electronic Structure Package
                               Psi4 1.9a1.dev12 

                         Git: Rev {master} 6ebe472 dirty


    D. G. A. Smith, L. A. Burns, A. C. Simmonett, R. M. Parrish,
    M. C. Schieber, R. Galvelis, P. Kraus, H. Kruse, R. Di Remigio,
    A. Alenaizan, A. M. James, S. Lehtola, J. P. Misiewicz, M. Scheurer,
    R. A. Shaw, J. B. Schriber, Y. Xie, Z. L. Glick, D. A. Sirianni,
    J. S. O'Brien, J. M. Waldrop, A. Kumar, E. G. Hohenstein,
    B. P. Pritchard, B. R. Brooks, H. F. Schaefer III, A. Yu. Sokolov,
    K. Patkowski, A. E. DePrince III, U. Bozkaya, R. A. King,
    F. A. Evangelista, J. M. Turney, T. D. Crawford, C. D. Sherrill,
    J. Chem. Phys. 152(18) 184108 (2020). https://doi.org/10.1063/5.0006002

                            Additional Code Authors
    E. T. Seidl, C. L. Janssen, E. F. Valeev, M. L. Leininger,
    J. F. Gonthier, R. M. Richard, H. R. McAlexander, M. Saitow, X. Wang,
    P. Verma, M. H. Lechner, A. Jiang, S. Behnle, A. G. Heide,
    M. F. Herbst, and D. L. Poole

             Previous Authors, Complete List of Code Contributors,
                       and Citations for Specific Modules
    https://github.com/psi4/psi4/blob/master/codemeta.json
    https://github.com/psi4/psi4/graphs/contributors
    http://psicode.org/psi4manual/master/introduction.html#citing-psifour

    -----------------------------------------------------------------------


    Psi4 started on: Wednesday, 23 August 2023 09:35AM

    Process ID: 28145
    Host:       n026
    PSIDATADIR: /opt/psi/4/1.9a/share/psi4
    Memory:     500.0 MiB
    Threads:    4
    
  ==> Input File <==

--------------------------------------------------------------------------
import os

set reference rhf

import numpy as np
import pickle

print(os.environ["SGE_TASK_ID"])

dist_rr = np.linspace(5.5, 7.0, 10)[int(os.environ["SGE_TASK_ID"]) - 1]

mgcp = geometry(f""" 
    0 1
    symmetry c1

    C
    C 1 dcc
    C 2 dcc 1 108
    C 3 dcc 2 108 1 0
    C 4 dcc 3 108 2 0
    C 1 drr 2 90  3 90
    C 2 drr 3 90  4 90
    C 3 drr 4 90  5 90
    C 8 dcc 7 108 6 0
    C 9 dcc 8 108 7 0
    H 1 dch 2 126 3 180
    H 2 dch 3 126 4 180
    H 3 dch 4 126 5 180
    H 4 dch 5 126 1 180
    H 5 dch 1 126 2 180
    H 6 dch 7 126 8 180
    H 7 dch 8 126 9 180
    H 8 dch 9 126 10 180
    H 9 dch 10 126 6 180
    H 10 dch 6 126 7 180
    Mg 1 dcbe 11 achbe 6 0
    Mg 6 dcbe 16 achbe 1 0

    dcc = 1.33
    drr = {dist_rr}
    dch = 1.088
    dcbe = 1.930
    achbe = 128.09

""")

set optking {
    frozen_distance = ("
        1 6
        2 7
        3 8
        4 9
        5 10
    ")
}

energy = optimize("b3lyp/cc-pVTZ")

mgcp.save_xyz_file("out/structs/dimgce-" + str(os.environ["SGE_TASK_ID"]) + ".xyz", True)

fstr = ""
with open("out/structs/dimgce-" + str(os.environ["SGE_TASK_ID"]) + ".xyz", "r") as fp :
    for line in fp :
        if len(line) == 0 :
            continue
        newline = line[0]
        for i in range(1, len(line)) :
            if line[i - 1].isupper() and line[i].isupper() :
                newline += line[i].lower()
            else :
                newline += line[i]
        if len(line) > 1 :
            newline += line[-1]
        fstr += newline
with open("out/structs/dimgce-" + str(os.environ["SGE_TASK_ID"]) + ".xyz", "w") as fp :
    print(fstr, file = fp)

while os.path.isfile(r"out/lock.dimgce_rr_energies.dat") :
    time.sleep(0.03)
with open(r"out/lock.dimgce_rr_energies.dat", "w+") as _ :
    with open("out/dimgce_rr_energies.dat", "ba+") as fp :
        fp.write(pickle.dumps(dist_rr))
        fp.write(pickle.dumps(energy))
os.remove(r"out/lock.dimgce_rr_energies.dat")

while os.path.isfile(r"out/lock.dimgce_rr_energies.txt") :
    time.sleep(0.03)

with open(r"out/lock.dimgce_rr_energies.txt", "w+") as _ :
    with open(r"out/dimgce_rr_energies.txt", "a+") as fp :
        print(f"Distance: {dist_rr}, Energy: {energy}", file = fp)
os.remove(r"out/lock.dimgce_rr_energies.txt")
--------------------------------------------------------------------------

Scratch directory: /tmp/929060.5.gen4.q/
gradient() will perform analytic gradient computation.
   => Libint2 <=

    Primary   basis highest AM E, G, H:  5, 4, 3
    Auxiliary basis highest AM E, G, H:  6, 5, 4
    Onebody   basis highest AM E, G, H:  6, 5, 4
    Solid Harmonics ordering:            gaussian

*** tstart() called on n026
*** at Wed Aug 23 09:35:22 2023

   => Loading Basis Set <=

    Name: CC-PVTZ
    Role: ORBITAL
    Keyword: BASIS
    atoms 1-10  entry C          line   186 file /opt/psi/4/1.9a/share/psi4/basis/cc-pvtz.gbs 
    atoms 11-20 entry H          line    23 file /opt/psi/4/1.9a/share/psi4/basis/cc-pvtz.gbs 
    atoms 21-22 entry MG         line   465 file /opt/psi/4/1.9a/share/psi4/basis/cc-pvtz.gbs 


         ---------------------------------------------------------
                                   SCF
               by Justin Turney, Rob Parrish, Andy Simmonett
                          and Daniel G. A. Smith
                              RKS Reference
                        4 Threads,    500 MiB Core
         ---------------------------------------------------------

  ==> Geometry <==

    Molecular point group: c1
    Full point group: C2v

    Geometry (in Angstrom), charge = 0, multiplicity = 1:

       Center              X                  Y                   Z               Mass       
    ------------   -----------------  -----------------  -----------------  -----------------
         C            3.083333333333     0.000000000000     1.147328424531    12.000000000000
         C            3.083333333333    -1.075992602519     0.365574038982    12.000000000000
         C            3.083333333333    -0.665000000000    -0.899331127690    12.000000000000
         C            3.083333333333     0.665000000000    -0.899331127690    12.000000000000
         C            3.083333333333     1.075992602519     0.365574038982    12.000000000000
         C           -3.083333333333     0.000000000000     1.147328424531    12.000000000000
         C           -3.083333333333    -1.075992602519     0.365574038982    12.000000000000
         C           -3.083333333333    -0.665000000000    -0.899331127690    12.000000000000
         C           -3.083333333333     0.665000000000    -0.899331127690    12.000000000000
         C           -3.083333333333     1.075992602519     0.365574038982    12.000000000000
         H            3.083333333333     0.000000000000     2.235328424531     1.007825032230
         H            3.083333333333    -2.110742092248     0.701784528862     1.007825032230
         H            3.083333333333    -1.304510354494    -1.779541617570     1.007825032230
         H            3.083333333333     1.304510354494    -1.779541617570     1.007825032230
         H            3.083333333333     2.110742092248     0.701784528862     1.007825032230
         H           -3.083333333333     0.000000000000     2.235328424531     1.007825032230
         H           -3.083333333333    -2.110742092248     0.701784528862     1.007825032230
         H           -3.083333333333    -1.304510354494    -1.779541617570     1.007825032230
         H           -3.083333333333     1.304510354494    -1.779541617570     1.007825032230
         H           -3.083333333333     2.110742092248     0.701784528862     1.007825032230
         MG           1.564340916444     0.000000000000    -0.043285718436    23.985041697000
         MG          -1.564340916444     0.000000000000    -0.043285718436    23.985041697000

  Running in c1 symmetry.

  Rotational constants: A =      0.08289  B =      0.01158  C =      0.01158 [cm^-1]
  Rotational constants: A =   2485.10971  B =    347.18271  C =    347.15337 [MHz]
  Nuclear repulsion =  755.205273603412024

  Charge       = 0
  Multiplicity = 1
  Electrons    = 94
  Nalpha       = 47
  Nbeta        = 47

  ==> Algorithm <==

  SCF Algorithm Type is DF.
  DIIS enabled.
  MOM disabled.
  Fractional occupation disabled.
  Guess Type is SAD.
  Energy threshold   = 1.00e-08
  Density threshold  = 1.00e-08
  Integral threshold = 1.00e-12

  ==> Primary Basis <==

  Basis Set: CC-PVTZ
    Blend: CC-PVTZ
    Number of shells: 184
    Number of basis functions: 508
    Number of Cartesian functions: 578
    Spherical Harmonics?: true
    Max angular momentum: 3

  ==> DFT Potential <==

   => LibXC <=

    Version 6.1.0
    S. Lehtola, C. Steigemann, M. J.T. Oliveira, and M. A.L. Marques.,  SoftwareX 7, 1–5 (2018) (10.1016/j.softx.2017.11.002)

   => Composite Functional: B3LYP <= 

    B3LYP Hyb-GGA Exchange-Correlation Functional

    P. J. Stephens, F. J. Devlin, C. F. Chabalowski, and M. J. Frisch.,  J. Phys. Chem. 98, 11623 (1994) (10.1021/j100096a001)

    Deriv               =              1
    GGA                 =           TRUE
    Meta                =          FALSE

    Exchange Hybrid     =           TRUE
    MP2 Hybrid          =          FALSE

   => Exchange Functionals <=

    0.0800   Slater exchange
    0.7200         Becke 88

   => Exact (HF) Exchange <=

    0.2000               HF 

   => Correlation Functionals <=

    0.1900   Vosko, Wilk & Nusair (VWN5_RPA)
    0.8100   Lee, Yang & Parr

   => LibXC Density Thresholds  <==

    XC_HYB_GGA_XC_B3LYP:  1.00E-15 

   => Molecular Quadrature <=

    Radial Scheme          =       TREUTLER
    Pruning Scheme         =           NONE
    Nuclear Scheme         =       TREUTLER

    Blocking Scheme        =         OCTREE
    BS radius alpha        =              1
    Pruning alpha          =              1
    Radial Points          =             75
    Spherical Points       =            302
    Total Points           =         458650
    Total Blocks           =           3348
    Max Points             =            256
    Max Functions          =            406
    Weights Tolerance      =       1.00E-15

   => Loading Basis Set <=

    Name: (CC-PVTZ AUX)
    Role: JKFIT
    Keyword: DF_BASIS_SCF
    atoms 1-10  entry C          line   125 file /opt/psi/4/1.9a/share/psi4/basis/cc-pvtz-jkfit.gbs 
    atoms 11-20 entry H          line    51 file /opt/psi/4/1.9a/share/psi4/basis/cc-pvtz-jkfit.gbs 
    atoms 21-22 entry MG         line   576 file /opt/psi/4/1.9a/share/psi4/basis/def2-universal-jkfit.gbs 

  ==> Integral Setup <==

  ==> DiskDFJK: Density-Fitted J/K Matrices <==

    J tasked:                  Yes
    K tasked:                  Yes
    wK tasked:                  No
    OpenMP threads:              4
    Integrals threads:           4
    Memory [MiB]:              337
    Algorithm:                Disk
    Integral Cache:           NONE
    Schwarz Cutoff:          1E-12
    Fitting Condition:       1E-10

   => Auxiliary Basis Set <=

  Basis Set: (CC-PVTZ AUX)
    Blend: CC-PVTZ-JKFIT + DEF2-UNIVERSAL-JKFIT
    Number of shells: 418
    Number of basis functions: 1314
    Number of Cartesian functions: 1584
    Spherical Harmonics?: true
    Max angular momentum: 4

  Cached 1.0% of DFT collocation blocks in 0.033 [GiB].

  Minimum eigenvalue in the overlap matrix is 6.4047464922E-05.
  Reciprocal condition number of the overlap matrix is 5.8064076625E-06.
    Using symmetric orthogonalization.

  ==> Pre-Iterations <==

  SCF Guess: Superposition of Atomic Densities via on-the-fly atomic UHF (no occupation information).

   -------------------------
    Irrep   Nso     Nmo    
   -------------------------
     A        508     508 
   -------------------------
    Total     508     508
   -------------------------

  ==> Iterations <==

                           Total Energy        Delta E     RMS |[F,P]|

   @DF-RKS iter SAD:  -788.93562164335640   -7.88936e+02   0.00000e+00 
   @DF-RKS iter   1:  -784.07854724162598    4.85707e+00   4.48519e-03 ADIIS/DIIS
   @DF-RKS iter   2:  -765.42086886069796    1.86577e+01   1.12580e-02 ADIIS/DIIS
   @DF-RKS iter   3:  -787.03140046607473   -2.16105e+01   1.12019e-03 ADIIS/DIIS
   @DF-RKS iter   4:  -787.08978682867360   -5.83864e-02   7.92623e-04 ADIIS/DIIS
   @DF-RKS iter   5:  -787.17689973759661   -8.71129e-02   1.89275e-04 ADIIS/DIIS
   @DF-RKS iter   6:  -787.18060799781438   -3.70826e-03   1.11384e-04 ADIIS/DIIS
   @DF-RKS iter   7:  -787.18227304613265   -1.66505e-03   9.94616e-06 DIIS
   @DF-RKS iter   8:  -787.18228516161184   -1.21155e-05   2.59595e-06 DIIS
   @DF-RKS iter   9:  -787.18228623109280   -1.06948e-06   6.69621e-07 DIIS
   @DF-RKS iter  10:  -787.18228628495081   -5.38580e-08   2.66803e-07 DIIS
   @DF-RKS iter  11:  -787.18228629262285   -7.67204e-09   5.61875e-08 DIIS
   @DF-RKS iter  12:  -787.18228629313876   -5.15911e-10   8.77162e-09 DIIS
  Energy and wave function converged.


  ==> Post-Iterations <==

   Electrons on quadrature grid:
      Ntotal   =   93.9998719217 ; deviation = -1.281e-04 

    Orbital Energies [Eh]
    ---------------------

    Doubly Occupied:                                                      

       1A    -46.764809     2A    -46.764802     3A    -10.158316  
       4A    -10.158315     5A    -10.157623     6A    -10.157622  
       7A    -10.157450     8A    -10.157449     9A    -10.156683  
      10A    -10.156683    11A    -10.156200    12A    -10.156200  
      13A     -3.062349    14A     -3.062331    15A     -1.810930  
      16A     -1.810580    17A     -1.806163    18A     -1.806151  
      19A     -1.806122    20A     -1.806110    21A     -0.952005  
      22A     -0.951978    23A     -0.738991    24A     -0.738985  
      25A     -0.738971    26A     -0.738965    27A     -0.553967  
      28A     -0.553960    29A     -0.553701    30A     -0.553693  
      31A     -0.553240    32A     -0.553198    33A     -0.440333  
      34A     -0.438791    35A     -0.409692    36A     -0.409689  
      37A     -0.409687    38A     -0.409685    39A     -0.389935  
      40A     -0.389927    41A     -0.389530    42A     -0.389520  
      43A     -0.262973    44A     -0.262922    45A     -0.261719  
      46A     -0.261666    47A     -0.149673  

    Virtual:                                                              

      48A      0.000216    49A      0.000279    50A      0.019268  
      51A      0.019477    52A      0.042314    53A      0.044879  
      54A      0.045470    55A      0.048099    56A      0.048122  
      57A      0.048178    58A      0.052142    59A      0.060328  
      60A      0.065948    61A      0.083569    62A      0.083645  
      63A      0.103469    64A      0.103956    65A      0.107468  
      66A      0.107708    67A      0.108541    68A      0.153533  
      69A      0.153562    70A      0.167712    71A      0.167717  
      72A      0.200233    73A      0.201706    74A      0.205254  
      75A      0.205996    76A      0.211893    77A      0.214270  
      78A      0.214345    79A      0.222086    80A      0.222133  
      81A      0.238301    82A      0.238351    83A      0.262945  
      84A      0.284527    85A      0.284812    86A      0.291289  
      87A      0.291325    88A      0.293250    89A      0.293417  
      90A      0.313520    91A      0.323809    92A      0.362465  
      93A      0.364213    94A      0.371602    95A      0.376676  
      96A      0.382427    97A      0.387065    98A      0.389492  
      99A      0.391671   100A      0.398346   101A      0.398451  
     102A      0.419754   103A      0.419867   104A      0.423586  
     105A      0.424027   106A      0.426737   107A      0.427496  
     108A      0.430010   109A      0.439155   110A      0.443451  
     111A      0.444173   112A      0.452003   113A      0.452106  
     114A      0.481459   115A      0.481690   116A      0.484938  
     117A      0.497140   118A      0.497210   119A      0.497468  
     120A      0.549961   121A      0.558765   122A      0.563141  
     123A      0.563167   124A      0.568596   125A      0.569404  
     126A      0.569667   127A      0.574417   128A      0.591297  
     129A      0.649374   130A      0.654319   131A      0.657322  
     132A      0.660157   133A      0.660979   134A      0.673057  
     135A      0.674010   136A      0.683892   137A      0.685009  
     138A      0.685508   139A      0.688768   140A      0.689271  
     141A      0.716580   142A      0.716745   143A      0.749610  
     144A      0.749889   145A      0.754226   146A      0.754550  
     147A      0.783121   148A      0.784506   149A      0.785756  
     150A      0.788473   151A      0.802072   152A      0.803834  
     153A      0.838784   154A      0.839148   155A      0.841383  
     156A      0.885972   157A      0.889865   158A      0.905640  
     159A      0.910515   160A      0.912837   161A      0.941557  
     162A      0.941683   163A      0.951307   164A      0.953744  
     165A      0.982011   166A      0.982039   167A      0.986741  
     168A      1.000878   169A      1.006597   170A      1.034532  
     171A      1.037540   172A      1.049702   173A      1.060032  
     174A      1.061545   175A      1.072129   176A      1.075216  
     177A      1.075553   178A      1.075994   179A      1.079126  
     180A      1.080273   181A      1.097307   182A      1.101541  
     183A      1.101902   184A      1.109450   185A      1.110988  
     186A      1.113080   187A      1.113501   188A      1.142814  
     189A      1.144562   190A      1.160826   191A      1.160847  
     192A      1.170015   193A      1.174283   194A      1.181086  
     195A      1.181799   196A      1.184444   197A      1.195868  
     198A      1.202662   199A      1.223256   200A      1.224083  
     201A      1.237426   202A      1.238681   203A      1.242137  
     204A      1.242635   205A      1.256105   206A      1.256510  
     207A      1.263844   208A      1.278330   209A      1.288932  
     210A      1.321501   211A      1.321539   212A      1.331369  
     213A      1.331515   214A      1.334942   215A      1.336514  
     216A      1.345313   217A      1.345914   218A      1.351347  
     219A      1.351407   220A      1.359546   221A      1.361005  
     222A      1.373847   223A      1.373927   224A      1.399757  
     225A      1.407343   226A      1.412018   227A      1.453153  
     228A      1.453156   229A      1.504178   230A      1.516009  
     231A      1.516060   232A      1.522655   233A      1.526777  
     234A      1.581035   235A      1.600732   236A      1.603670  
     237A      1.627614   238A      1.648480   239A      1.656633  
     240A      1.677595   241A      1.692461   242A      1.701339  
     243A      1.701549   244A      1.715465   245A      1.787456  
     246A      1.789745   247A      1.791945   248A      1.792258  
     249A      1.801508   250A      1.801876   251A      1.832590  
     252A      1.849992   253A      2.067687   254A      2.067733  
     255A      2.093815   256A      2.093864   257A      2.136299  
     258A      2.179965   259A      2.290600   260A      2.298448  
     261A      2.318093   262A      2.356934   263A      2.357182  
     264A      2.371449   265A      2.376580   266A      2.377005  
     267A      2.382594   268A      2.419161   269A      2.429444  
     270A      2.434699   271A      2.456096   272A      2.456783  
     273A      2.555983   274A      2.556892   275A      2.567979  
     276A      2.626040   277A      2.626359   278A      2.665987  
     279A      2.666362   280A      2.669999   281A      2.713918  
     282A      2.714099   283A      2.718359   284A      2.723078  
     285A      2.758123   286A      2.771805   287A      2.795056  
     288A      2.801562   289A      2.802710   290A      2.815883  
     291A      2.820319   292A      2.820485   293A      2.821017  
     294A      2.826198   295A      2.826441   296A      2.846130  
     297A      2.846682   298A      2.857475   299A      2.889927  
     300A      2.889986   301A      2.890809   302A      2.893281  
     303A      2.901180   304A      2.902789   305A      2.911490  
     306A      2.922349   307A      2.933797   308A      2.944501  
     309A      2.945261   310A      2.946840   311A      2.947800  
     312A      2.949433   313A      2.949473   314A      2.970455  
     315A      2.979099   316A      3.012059   317A      3.025057  
     318A      3.027436   319A      3.043065   320A      3.045638  
     321A      3.046796   322A      3.054904   323A      3.063423  
     324A      3.073123   325A      3.073513   326A      3.077088  
     327A      3.081271   328A      3.087120   329A      3.089777  
     330A      3.099122   331A      3.117538   332A      3.125820  
     333A      3.161746   334A      3.163108   335A      3.163713  
     336A      3.164305   337A      3.205142   338A      3.207928  
     339A      3.227773   340A      3.227776   341A      3.294095  
     342A      3.294965   343A      3.307867   344A      3.328135  
     345A      3.329061   346A      3.350343   347A      3.360821  
     348A      3.361029   349A      3.409289   350A      3.415481  
     351A      3.425116   352A      3.425974   353A      3.427624  
     354A      3.436625   355A      3.441120   356A      3.445983  
     357A      3.448826   358A      3.452337   359A      3.453465  
     360A      3.456506   361A      3.478655   362A      3.478842  
     363A      3.500448   364A      3.501316   365A      3.501471  
     366A      3.508066   367A      3.509399   368A      3.509473  
     369A      3.524099   370A      3.622519   371A      3.650815  
     372A      3.651633   373A      3.654656   374A      3.655413  
     375A      3.691071   376A      3.691080   377A      3.700095  
     378A      3.704667   379A      3.721070   380A      3.721077  
     381A      3.810765   382A      3.811181   383A      3.836400  
     384A      3.836618   385A      3.847041   386A      3.847545  
     387A      3.852682   388A      3.853081   389A      3.909266  
     390A      3.915259   391A      3.920123   392A      3.927841  
     393A      3.958067   394A      3.977546   395A      3.977835  
     396A      3.995242   397A      3.995792   398A      4.030492  
     399A      4.031283   400A      4.040454   401A      4.042159  
     402A      4.049299   403A      4.049513   404A      4.067438  
     405A      4.067438   406A      4.068597   407A      4.121748  
     408A      4.121929   409A      4.164725   410A      4.165168  
     411A      4.178673   412A      4.182678   413A      4.184417  
     414A      4.266866   415A      4.268104   416A      4.269465  
     417A      4.271349   418A      4.321115   419A      4.322862  
     420A      4.342636   421A      4.344535   422A      4.372780  
     423A      4.372841   424A      4.379502   425A      4.379803  
     426A      4.395812   427A      4.396007   428A      4.399480  
     429A      4.399884   430A      4.436764   431A      4.458628  
     432A      4.460170   433A      4.460451   434A      4.462018  
     435A      4.479360   436A      4.482509   437A      4.485051  
     438A      4.487273   439A      4.491050   440A      4.492390  
     441A      4.494516   442A      4.495798   443A      4.497794  
     444A      4.540953   445A      4.602232   446A      4.629323  
     447A      4.629887   448A      4.630908   449A      4.631238  
     450A      4.654777   451A      4.695652   452A      4.695676  
     453A      4.709058   454A      4.709322   455A      4.899931  
     456A      4.902695   457A      4.905128   458A      4.905456  
     459A      4.905634   460A      4.907009   461A      4.907160  
     462A      5.026264   463A      5.026543   464A      5.112707  
     465A      5.129091   466A      5.129798   467A      5.138338  
     468A      5.139827   469A      5.173500   470A      5.173893  
     471A      5.219282   472A      5.221446   473A      5.221534  
     474A      5.264272   475A      5.461820   476A      5.462995  
     477A      5.464494   478A      5.465624   479A      5.685147  
     480A      5.685405   481A      5.717446   482A      5.717516  
     483A      5.851117   484A      5.851257   485A      5.865340  
     486A      5.866033   487A      5.868133   488A      5.870102  
     489A      6.146749   490A      6.146875   491A      6.192902  
     492A      6.192922   493A      6.619139   494A      6.621104  
     495A      6.622601   496A      6.626417   497A      6.841826  
     498A      6.841910   499A      9.611591   500A      9.643151  
     501A     13.736005   502A     13.738272   503A     13.934164  
     504A     13.937549   505A     14.932665   506A     14.939125  
     507A     14.944046   508A     14.949399  

    Final Occupation by Irrep:
              A 
    DOCC [    47 ]
    NA   [    47 ]
    NB   [    47 ]

  @DF-RKS Final Energy:  -787.18228629313876

   => Energetics <=

    Nuclear Repulsion Energy =            755.2052736034120244
    One-Electron Energy =               -2580.4277682943356922
    Two-Electron Energy =                1112.3768816501276433
    DFT Exchange-Correlation Energy =     -74.3366732523426634
    Empirical Dispersion Energy =           0.0000000000000000
    VV10 Nonlocal Energy =                  0.0000000000000000
    Total Energy =                       -787.1822862931386453

Computation Completed


Properties will be evaluated at   0.000000,   0.000000,   0.000000 [a0]

Properties computed using the SCF density matrix


 Multipole Moments:

 ------------------------------------------------------------------------------------
     Multipole            Electronic (a.u.)      Nuclear  (a.u.)        Total (a.u.)
 ------------------------------------------------------------------------------------

 L = 1.  Multiply by 2.5417464519 to convert [e a0] to [Debye]
 Dipole X            :         -0.0000000           -0.0000000           -0.0000000
 Dipole Y            :          0.0000000           -0.0000000            0.0000000
 Dipole Z            :         -0.1556386            0.1484233           -0.0072153
 Magnitude           :                                                    0.0072153

 ------------------------------------------------------------------------------------

*** tstop() called on n026 at Wed Aug 23 09:36:50 2023
Module time:
	user time   =     331.07 seconds =       5.52 minutes
	system time =       3.70 seconds =       0.06 minutes
	total time  =         88 seconds =       1.47 minutes
Total time:
	user time   =     331.07 seconds =       5.52 minutes
	system time =       3.70 seconds =       0.06 minutes
	total time  =         88 seconds =       1.47 minutes

*** tstart() called on n026
*** at Wed Aug 23 09:36:50 2023


         ------------------------------------------------------------
                                   SCF GRAD                          
                          Rob Parrish, Justin Turney,                
                       Andy Simmonett, and Alex Sokolov              
         ------------------------------------------------------------

  ==> Geometry <==

    Molecular point group: c1
    Full point group: C2v

    Geometry (in Angstrom), charge = 0, multiplicity = 1:

       Center              X                  Y                   Z               Mass       
    ------------   -----------------  -----------------  -----------------  -----------------
         C            3.083333333333     0.000000000000     1.147328424531    12.000000000000
         C            3.083333333333    -1.075992602519     0.365574038982    12.000000000000
         C            3.083333333333    -0.665000000000    -0.899331127690    12.000000000000
         C            3.083333333333     0.665000000000    -0.899331127690    12.000000000000
         C            3.083333333333     1.075992602519     0.365574038982    12.000000000000
         C           -3.083333333333     0.000000000000     1.147328424531    12.000000000000
         C           -3.083333333333    -1.075992602519     0.365574038982    12.000000000000
         C           -3.083333333333    -0.665000000000    -0.899331127690    12.000000000000
         C           -3.083333333333     0.665000000000    -0.899331127690    12.000000000000
         C           -3.083333333333     1.075992602519     0.365574038982    12.000000000000
         H            3.083333333333     0.000000000000     2.235328424531     1.007825032230
         H            3.083333333333    -2.110742092248     0.701784528862     1.007825032230
         H            3.083333333333    -1.304510354494    -1.779541617570     1.007825032230
         H            3.083333333333     1.304510354494    -1.779541617570     1.007825032230
         H            3.083333333333     2.110742092248     0.701784528862     1.007825032230
         H           -3.083333333333     0.000000000000     2.235328424531     1.007825032230
         H           -3.083333333333    -2.110742092248     0.701784528862     1.007825032230
         H           -3.083333333333    -1.304510354494    -1.779541617570     1.007825032230
         H           -3.083333333333     1.304510354494    -1.779541617570     1.007825032230
         H           -3.083333333333     2.110742092248     0.701784528862     1.007825032230
         MG           1.564340916444     0.000000000000    -0.043285718436    23.985041697000
         MG          -1.564340916444     0.000000000000    -0.043285718436    23.985041697000

  Nuclear repulsion =  755.205273603411911

  ==> Basis Set <==

  Basis Set: CC-PVTZ
    Blend: CC-PVTZ
    Number of shells: 184
    Number of basis functions: 508
    Number of Cartesian functions: 578
    Spherical Harmonics?: true
    Max angular momentum: 3

  ==> DFJKGrad: Density-Fitted SCF Gradients <==

    Gradient:                    1
    J tasked:                  Yes
    K tasked:                  Yes
    wK tasked:                  No
    OpenMP threads:              4
    Integrals threads:           4
    Memory [MiB]:              375
    Schwarz Cutoff:          1E-12
    Fitting Condition:       1E-10

   => Auxiliary Basis Set <=

  Basis Set: (CC-PVTZ AUX)
    Blend: CC-PVTZ-JKFIT + DEF2-UNIVERSAL-JKFIT
    Number of shells: 418
    Number of basis functions: 1314
    Number of Cartesian functions: 1584
    Spherical Harmonics?: true
    Max angular momentum: 4

  ==> DFT Potential <==

   => LibXC <=

    Version 6.1.0
    S. Lehtola, C. Steigemann, M. J.T. Oliveira, and M. A.L. Marques.,  SoftwareX 7, 1–5 (2018) (10.1016/j.softx.2017.11.002)

   => Composite Functional: B3LYP <= 

    B3LYP Hyb-GGA Exchange-Correlation Functional

    P. J. Stephens, F. J. Devlin, C. F. Chabalowski, and M. J. Frisch.,  J. Phys. Chem. 98, 11623 (1994) (10.1021/j100096a001)

    Deriv               =              1
    GGA                 =           TRUE
    Meta                =          FALSE

    Exchange Hybrid     =           TRUE
    MP2 Hybrid          =          FALSE

   => Exchange Functionals <=

    0.0800   Slater exchange
    0.7200         Becke 88

   => Exact (HF) Exchange <=

    0.2000               HF 

   => Correlation Functionals <=

    0.1900   Vosko, Wilk & Nusair (VWN5_RPA)
    0.8100   Lee, Yang & Parr

   => LibXC Density Thresholds  <==

    XC_HYB_GGA_XC_B3LYP:  1.00E-15 

   => Molecular Quadrature <=

    Radial Scheme          =       TREUTLER
    Pruning Scheme         =           NONE
    Nuclear Scheme         =       TREUTLER

    Blocking Scheme        =         OCTREE
    BS radius alpha        =              1
    Pruning alpha          =              1
    Radial Points          =             75
    Spherical Points       =            302
    Total Points           =         458650
    Total Blocks           =           3348
    Max Points             =            256
    Max Functions          =            406
    Weights Tolerance      =       1.00E-15


  -Total Gradient:
     Atom            X                  Y                   Z
    ------   -----------------  -----------------  -----------------
       1       -0.042651698880     0.000000008917    -0.135638031137
       2       -0.048906011587     0.131787582113    -0.043935876661
       3       -0.061021424929     0.085933989185     0.116775801770
       4       -0.061021430003    -0.085933980447     0.116775806536
       5       -0.048906018955    -0.131787587147    -0.043935881148
       6        0.042651703228     0.000000001539    -0.135638045255
       7        0.048906019370     0.131787594727    -0.043935881305
       8        0.061021431825     0.085933988538     0.116775814212
       9        0.061021430517    -0.085933993303     0.116775811750
      10        0.048906019788    -0.131787590474    -0.043935872760
      11        0.000943351017    -0.000000001695     0.006174498449
      12        0.000738189670    -0.005820006967     0.001996390109
      13        0.000356016844    -0.003636658322    -0.004906375796
      14        0.000356019200     0.003636646168    -0.004906363809
      15        0.000738192869     0.005819987671     0.001996384934
      16       -0.000943349874    -0.000000000252     0.006174499222
      17       -0.000738189682    -0.005819998198     0.001996387250
      18       -0.000356015591    -0.003636654601    -0.004906374022
      19       -0.000356015087     0.003636657760    -0.004906377992
      20       -0.000738190022     0.005819994460     0.001996385531
      21        0.271070873033     0.000000020406    -0.010393281853
      22       -0.271070902749    -0.000000000082    -0.010393275388


*** tstop() called on n026 at Wed Aug 23 09:37:13 2023
Module time:
	user time   =      87.66 seconds =       1.46 minutes
	system time =       0.21 seconds =       0.00 minutes
	total time  =         23 seconds =       0.38 minutes
Total time:
	user time   =     418.74 seconds =       6.98 minutes
	system time =       3.91 seconds =       0.07 minutes
	total time  =        111 seconds =       1.85 minutes

    			-----------------------------------------

    			 OPTKING 3.0: for geometry optimizations 

    			     By R.A. King, Bethel University     

    			        with contributions from          

    			    A.V. Copan, J. Cayton, A. Heide      

    			-----------------------------------------

    
	                            ===> Fragment 1 <== 

	 Z (Atomic Numbers)          Masses                          Geom                  
	       6.000000            12.000000          5.82665555  0.00000000  2.16813650   
	       6.000000            12.000000          5.82665555 -2.03333133  0.69083481   
	       6.000000            12.000000          5.82665555 -1.25666787 -1.69948953   
	       6.000000            12.000000          5.82665555  1.25666787 -1.69948953   
	       6.000000            12.000000          5.82665555  2.03333133  0.69083481   
	       6.000000            12.000000         -5.82665555  0.00000000  2.16813650   
	       6.000000            12.000000         -5.82665555 -2.03333133  0.69083481   
	       6.000000            12.000000         -5.82665555 -1.25666787 -1.69948953   
	       6.000000            12.000000         -5.82665555  1.25666787 -1.69948953   
	       6.000000            12.000000         -5.82665555  2.03333133  0.69083481   
	       1.000000             1.007825          5.82665555  0.00000000  4.22415852   
	       1.000000             1.007825          5.82665555 -3.98872448  1.32618056   
	       1.000000             1.007825          5.82665555 -2.46516730 -3.36284629   
	       1.000000             1.007825          5.82665555  2.46516730 -3.36284629   
	       1.000000             1.007825          5.82665555  3.98872448  1.32618056   
	       1.000000             1.007825         -5.82665555  0.00000000  4.22415852   
	       1.000000             1.007825         -5.82665555 -3.98872448  1.32618056   
	       1.000000             1.007825         -5.82665555 -2.46516730 -3.36284629   
	       1.000000             1.007825         -5.82665555  2.46516730 -3.36284629   
	       1.000000             1.007825         -5.82665555  3.98872448  1.32618056   
	      12.000000            23.985042          2.95617590  0.00000000 -0.08179815   
	      12.000000            23.985042         -2.95617590  0.00000000 -0.08179815   

	 - Coordinate -           - BOHR/RAD -       - ANG/DEG -
	 R(1,2)           =         2.513336           1.330000
	 R(1,5)           =         2.513336           1.330000
	 R(1,11)          =         2.056022           1.088000
	 R(1,21)          =         3.647171           1.930000
	 R(2,3)           =         2.513336           1.330000
	 R(2,12)          =         2.056022           1.088000
	 R(2,21)          =         3.601535           1.905850
	 R(3,4)           =         2.513336           1.330000
	 R(3,13)          =         2.056022           1.088000
	 R(3,21)          =         3.526442           1.866113
	 R(4,5)           =         2.513336           1.330000
	 R(4,14)          =         2.056022           1.088000
	 R(4,21)          =         3.526442           1.866113
	 R(5,15)          =         2.056022           1.088000
	 R(5,21)          =         3.601535           1.905850
	 R(6,7)           =         2.513336           1.330000
	 R(6,10)          =         2.513336           1.330000
	 R(6,16)          =         2.056022           1.088000
	 R(6,22)          =         3.647171           1.930000
	 R(7,8)           =         2.513336           1.330000
	 R(7,17)          =         2.056022           1.088000
	 R(7,22)          =         3.601535           1.905850
	 R(8,9)           =         2.513336           1.330000
	 R(8,18)          =         2.056022           1.088000
	 R(8,22)          =         3.526442           1.866113
	 R(9,10)          =         2.513336           1.330000
	 R(9,19)          =         2.056022           1.088000
	 R(9,22)          =         3.526442           1.866113
	 R(10,20)         =         2.056022           1.088000
	 R(10,22)         =         3.601535           1.905850
	 R(21,22)         =         5.912352           3.128682
	 B(1,2,3)         =         1.884956         108.000000
	 B(1,2,12)        =         2.199115         126.000000
	 B(1,2,21)        =         1.233801          70.691600
	 B(1,5,4)         =         1.884956         108.000000
	 B(1,5,15)        =         2.199115         126.000000
	 B(1,5,21)        =         1.233801          70.691600
	 B(1,21,2)        =         0.708056          40.568594
	 B(1,21,3)        =         1.205044          69.043939
	 B(1,21,4)        =         1.205044          69.043939
	 B(1,21,5)        =         0.708056          40.568594
	 B(1,21,22)       =         2.476797         141.910000
	 B(2,1,5)         =         1.884956         108.000000
	 B(2,1,11)        =         2.199115         126.000000
	 B(2,1,21)        =         1.199736          68.739806
	 B(2,3,4)         =         1.884956         108.000000
	 B(2,3,13)        =         2.199115         126.000000
	 B(2,3,21)        =         1.238558          70.964134
	 B(2,21,3)        =         0.720405          41.276163
	 B(2,21,4)        =         1.214121          69.564020
	 B(2,21,5)        =         1.199833          68.745372
	 B(2,21,22)       =         2.493134         142.846061
	 B(3,2,12)        =         2.199115         126.000000
	 B(3,2,21)        =         1.182630          67.759703
	 B(3,4,5)         =         1.884956         108.000000
	 B(3,4,14)        =         2.199115         126.000000
	 B(3,4,21)        =         1.206432          69.123442
	 B(3,21,4)        =         0.728729          41.753116
	 B(3,21,5)        =         1.214121          69.564020
	 B(3,21,22)       =         2.521780         144.487370
	 B(4,3,13)        =         2.199115         126.000000
	 B(4,3,21)        =         1.206432          69.123442
	 B(4,5,15)        =         2.199115         126.000000
	 B(4,5,21)        =         1.182630          67.759703
	 B(4,21,5)        =         0.720405          41.276163
	 B(4,21,22)       =         2.521780         144.487370
	 B(5,1,11)        =         2.199115         126.000000
	 B(5,1,21)        =         1.199736          68.739806
	 B(5,4,14)        =         2.199115         126.000000
	 B(5,4,21)        =         1.238558          70.964134
	 B(5,21,22)       =         2.493134         142.846061
	 B(6,7,8)         =         1.884956         108.000000
	 B(6,7,17)        =         2.199115         126.000000
	 B(6,7,22)        =         1.233801          70.691600
	 B(6,10,9)        =         1.884956         108.000000
	 B(6,10,20)       =         2.199115         126.000000
	 B(6,10,22)       =         1.233801          70.691600
	 B(6,22,7)        =         0.708056          40.568594
	 B(6,22,8)        =         1.205044          69.043939
	 B(6,22,9)        =         1.205044          69.043939
	 B(6,22,10)       =         0.708056          40.568594
	 B(6,22,21)       =         2.476797         141.910000
	 B(7,6,10)        =         1.884956         108.000000
	 B(7,6,16)        =         2.199115         126.000000
	 B(7,6,22)        =         1.199736          68.739806
	 B(7,8,9)         =         1.884956         108.000000
	 B(7,8,18)        =         2.199115         126.000000
	 B(7,8,22)        =         1.238558          70.964134
	 B(7,22,8)        =         0.720405          41.276163
	 B(7,22,9)        =         1.214121          69.564020
	 B(7,22,10)       =         1.199833          68.745372
	 B(7,22,21)       =         2.493134         142.846061
	 B(8,7,17)        =         2.199115         126.000000
	 B(8,7,22)        =         1.182630          67.759703
	 B(8,9,10)        =         1.884956         108.000000
	 B(8,9,19)        =         2.199115         126.000000
	 B(8,9,22)        =         1.206432          69.123442
	 B(8,22,9)        =         0.728729          41.753116
	 B(8,22,10)       =         1.214121          69.564020
	 B(8,22,21)       =         2.521780         144.487370
	 B(9,8,18)        =         2.199115         126.000000
	 B(9,8,22)        =         1.206432          69.123442
	 B(9,10,20)       =         2.199115         126.000000
	 B(9,10,22)       =         1.182630          67.759703
	 B(9,22,10)       =         0.720405          41.276163
	 B(9,22,21)       =         2.521780         144.487370
	 B(10,6,16)       =         2.199115         126.000000
	 B(10,6,22)       =         1.199736          68.739806
	 B(10,9,19)       =         2.199115         126.000000
	 B(10,9,22)       =         1.238558          70.964134
	 B(10,22,21)      =         2.493134         142.846061
	 B(11,1,21)       =         2.235592         128.090000
	 B(12,2,21)       =         2.218347         127.101901
	 B(13,3,21)       =         2.190240         125.491526
	 B(14,4,21)       =         2.190240         125.491526
	 B(15,5,21)       =         2.218347         127.101901
	 B(16,6,22)       =         2.235592         128.090000
	 B(17,7,22)       =         2.218347         127.101901
	 B(18,8,22)       =         2.190240         125.491526
	 B(19,9,22)       =         2.190240         125.491526
	 B(20,10,22)      =         2.218347         127.101901
	 D(1,2,3,4)       =         0.000000           0.000000
	 D(1,2,3,13)      =         3.141593         180.000000
	 D(1,2,3,21)      =        -1.037382         -59.437586
	 D(1,2,21,3)      =         2.090956         119.802941
	 D(1,2,21,4)      =         1.418558          81.277414
	 D(1,2,21,5)      =         0.645267          36.971091
	 D(1,2,21,22)     =        -2.051443        -117.539053
	 D(1,5,4,3)       =         0.000000           0.000000
	 D(1,5,4,14)      =         3.141593         180.000000
	 D(1,5,4,21)      =         1.037382          59.437586
	 D(1,5,21,2)      =        -0.645267         -36.971091
	 D(1,5,21,3)      =        -1.418558         -81.277414
	 D(1,5,21,4)      =        -2.090956        -119.802941
	 D(1,5,21,22)     =         2.051443         117.539053
	 D(1,21,2,3)      =        -2.090956        -119.802941
	 D(1,21,2,12)     =         2.112862         121.058047
	 D(1,21,3,2)      =         0.648904          37.179487
	 D(1,21,3,4)      =        -1.424204         -81.600870
	 D(1,21,3,13)     =         2.763802         158.354189
	 D(1,21,4,3)      =         1.424204          81.600870
	 D(1,21,4,5)      =        -0.648904         -37.179487
	 D(1,21,4,14)     =        -2.763802        -158.354189
	 D(1,21,5,4)      =         2.090956         119.802941
	 D(1,21,5,15)     =        -2.112862        -121.058047
	 D(1,21,22,6)     =         0.000000           0.000000
	 D(1,21,22,7)     =        -1.207663         -69.194020
	 D(1,21,22,8)     =        -2.481142        -142.158941
	 D(1,21,22,9)     =         2.481142         142.158941
	 D(1,21,22,10)    =         1.207663          69.194020
	 D(2,1,5,4)       =         0.000000           0.000000
	 D(2,1,5,15)      =         3.141593         180.000000
	 D(2,1,5,21)      =         1.005664          57.620302
	 D(2,1,21,3)      =        -0.659832         -37.805609
	 D(2,1,21,4)      =        -1.442878         -82.670821
	 D(2,1,21,5)      =        -2.102710        -120.476430
	 D(2,1,21,22)     =         2.090237         119.761785
	 D(2,3,4,5)       =         0.000000           0.000000
	 D(2,3,4,14)      =         3.141593         180.000000
	 D(2,3,4,21)      =        -1.057601         -60.596073
	 D(2,3,21,4)      =         2.073108         118.780357
	 D(2,3,21,5)      =         1.408141          80.680558
	 D(2,3,21,22)     =        -2.075429        -118.913320
	 D(2,21,1,5)      =         2.102710         120.476430
	 D(2,21,1,11)     =        -2.090237        -119.761785
	 D(2,21,3,4)      =        -2.073108        -118.780357
	 D(2,21,3,13)     =         2.114898         121.174702
	 D(2,21,4,3)      =         0.664967          38.099799
	 D(2,21,4,5)      =        -1.408141         -80.680558
	 D(2,21,4,14)     =         2.760146         158.144740
	 D(2,21,5,4)      =         1.445689          82.831851
	 D(2,21,5,15)     =        -2.758129        -158.029138
	 D(2,21,22,6)     =         1.207663          69.194020
	 D(2,21,22,7)     =         0.000000           0.000000
	 D(2,21,22,8)     =        -1.273478         -72.964920
	 D(2,21,22,9)     =        -2.594380        -148.647039
	 D(2,21,22,10)    =         2.415327         138.388040
	 D(3,2,1,5)       =         0.000000           0.000000
	 D(3,2,1,11)      =         3.141593         180.000000
	 D(3,2,1,21)      =         1.005664          57.620302
	 D(3,2,21,4)      =        -0.672397         -38.525527
	 D(3,2,21,5)      =        -1.445689         -82.831851
	 D(3,2,21,22)     =         2.140786         122.658006
	 D(3,4,5,15)      =         3.141593         180.000000
	 D(3,4,5,21)      =        -1.037382         -59.437586
	 D(3,4,21,5)      =         2.073108         118.780357
	 D(3,4,21,22)     =        -2.134648        -122.306323
	 D(3,21,1,5)      =         1.442878          82.670821
	 D(3,21,1,11)     =        -2.750070        -157.567394
	 D(3,21,2,12)     =        -2.079368        -119.139012
	 D(3,21,4,5)      =        -2.073108        -118.780357
	 D(3,21,4,14)     =         2.095179         120.044941
	 D(3,21,5,4)      =         0.672397          38.525527
	 D(3,21,5,15)     =         2.751765         157.664539
	 D(3,21,22,6)     =         2.481142         142.158941
	 D(3,21,22,7)     =         1.273478          72.964920
	 D(3,21,22,8)     =         0.000000           0.000000
	 D(3,21,22,9)     =        -1.320902         -75.682119
	 D(3,21,22,10)    =        -2.594380        -148.647039
	 D(4,3,2,12)      =         3.141593         180.000000
	 D(4,3,2,21)      =         1.037382          59.437586
	 D(4,3,21,5)      =        -0.664967         -38.099799
	 D(4,3,21,22)     =         2.134648         122.306323
	 D(4,5,1,11)      =         3.141593         180.000000
	 D(4,5,1,21)      =        -1.005664         -57.620302
	 D(4,5,21,22)     =        -2.140786        -122.658006
	 D(4,21,1,5)      =         0.659832          37.805609
	 D(4,21,1,11)     =         2.750070         157.567394
	 D(4,21,2,12)     =        -2.751765        -157.664539
	 D(4,21,3,13)     =        -2.095179        -120.044941
	 D(4,21,5,15)     =         2.079368         119.139012
	 D(4,21,22,6)     =        -2.481142        -142.158941
	 D(4,21,22,7)     =         2.594380         148.647039
	 D(4,21,22,8)     =         1.320902          75.682119
	 D(4,21,22,9)     =        -0.000000          -0.000000
	 D(4,21,22,10)    =        -1.273478         -72.964920
	 D(5,1,2,12)      =         3.141593         180.000000
	 D(5,1,2,21)      =        -1.005664         -57.620302
	 D(5,1,21,22)     =        -2.090237        -119.761785
	 D(5,4,3,13)      =         3.141593         180.000000
	 D(5,4,3,21)      =         1.057601          60.596073
	 D(5,4,21,22)     =         2.075429         118.913320
	 D(5,21,1,11)     =         2.090237         119.761785
	 D(5,21,2,12)     =         2.758129         158.029138
	 D(5,21,3,13)     =        -2.760146        -158.144740
	 D(5,21,4,14)     =        -2.114898        -121.174702
	 D(5,21,22,6)     =        -1.207663         -69.194020
	 D(5,21,22,7)     =        -2.415327        -138.388040
	 D(5,21,22,8)     =         2.594380         148.647039
	 D(5,21,22,9)     =         1.273478          72.964920
	 D(5,21,22,10)    =        -0.000000          -0.000000
	 D(6,7,8,9)       =        -0.000000          -0.000000
	 D(6,7,8,18)      =         3.141593         180.000000
	 D(6,7,8,22)      =         1.037382          59.437586
	 D(6,7,22,8)      =        -2.090956        -119.802941
	 D(6,7,22,9)      =        -1.418558         -81.277414
	 D(6,7,22,10)     =        -0.645267         -36.971091
	 D(6,7,22,21)     =         2.051443         117.539053
	 D(6,10,9,8)      =        -0.000000          -0.000000
	 D(6,10,9,19)     =         3.141593         180.000000
	 D(6,10,9,22)     =        -1.037382         -59.437586
	 D(6,10,22,7)     =         0.645267          36.971091
	 D(6,10,22,8)     =         1.418558          81.277414
	 D(6,10,22,9)     =         2.090956         119.802941
	 D(6,10,22,21)    =        -2.051443        -117.539053
	 D(6,22,7,8)      =         2.090956         119.802941
	 D(6,22,7,17)     =        -2.112862        -121.058047
	 D(6,22,8,7)      =        -0.648904         -37.179487
	 D(6,22,8,9)      =         1.424204          81.600870
	 D(6,22,8,18)     =        -2.763802        -158.354189
	 D(6,22,9,8)      =        -1.424204         -81.600870
	 D(6,22,9,10)     =         0.648904          37.179487
	 D(6,22,9,19)     =         2.763802         158.354189
	 D(6,22,10,9)     =        -2.090956        -119.802941
	 D(6,22,10,20)    =         2.112862         121.058047
	 D(7,6,10,9)      =         0.000000           0.000000
	 D(7,6,10,20)     =         3.141593         180.000000
	 D(7,6,10,22)     =        -1.005664         -57.620302
	 D(7,6,22,8)      =         0.659832          37.805609
	 D(7,6,22,9)      =         1.442878          82.670821
	 D(7,6,22,10)     =         2.102710         120.476430
	 D(7,6,22,21)     =        -2.090237        -119.761785
	 D(7,8,9,10)      =         0.000000           0.000000
	 D(7,8,9,19)      =         3.141593         180.000000
	 D(7,8,9,22)      =         1.057601          60.596073
	 D(7,8,22,9)      =        -2.073108        -118.780357
	 D(7,8,22,10)     =        -1.408141         -80.680558
	 D(7,8,22,21)     =         2.075429         118.913320
	 D(7,22,6,10)     =        -2.102710        -120.476430
	 D(7,22,6,16)     =         2.090237         119.761785
	 D(7,22,8,9)      =         2.073108         118.780357
	 D(7,22,8,18)     =        -2.114898        -121.174702
	 D(7,22,9,8)      =        -0.664967         -38.099799
	 D(7,22,9,10)     =         1.408141          80.680558
	 D(7,22,9,19)     =        -2.760146        -158.144740
	 D(7,22,10,9)     =        -1.445689         -82.831851
	 D(7,22,10,20)    =         2.758129         158.029138
	 D(8,7,6,10)      =        -0.000000          -0.000000
	 D(8,7,6,16)      =         3.141593         180.000000
	 D(8,7,6,22)      =        -1.005664         -57.620302
	 D(8,7,22,9)      =         0.672397          38.525527
	 D(8,7,22,10)     =         1.445689          82.831851
	 D(8,7,22,21)     =        -2.140786        -122.658006
	 D(8,9,10,20)     =         3.141593         180.000000
	 D(8,9,10,22)     =         1.037382          59.437586
	 D(8,9,22,10)     =        -2.073108        -118.780357
	 D(8,9,22,21)     =         2.134648         122.306323
	 D(8,22,6,10)     =        -1.442878         -82.670821
	 D(8,22,6,16)     =         2.750070         157.567394
	 D(8,22,7,17)     =         2.079368         119.139012
	 D(8,22,9,10)     =         2.073108         118.780357
	 D(8,22,9,19)     =        -2.095179        -120.044941
	 D(8,22,10,9)     =        -0.672397         -38.525527
	 D(8,22,10,20)    =        -2.751765        -157.664539
	 D(9,8,7,17)      =         3.141593         180.000000
	 D(9,8,7,22)      =        -1.037382         -59.437586
	 D(9,8,22,10)     =         0.664967          38.099799
	 D(9,8,22,21)     =        -2.134648        -122.306323
	 D(9,10,6,16)     =         3.141593         180.000000
	 D(9,10,6,22)     =         1.005664          57.620302
	 D(9,10,22,21)    =         2.140786         122.658006
	 D(9,22,6,10)     =        -0.659832         -37.805609
	 D(9,22,6,16)     =        -2.750070        -157.567394
	 D(9,22,7,17)     =         2.751765         157.664539
	 D(9,22,8,18)     =         2.095179         120.044941
	 D(9,22,10,20)    =        -2.079368        -119.139012
	 D(10,6,7,17)     =         3.141593         180.000000
	 D(10,6,7,22)     =         1.005664          57.620302
	 D(10,6,22,21)    =         2.090237         119.761785
	 D(10,9,8,18)     =         3.141593         180.000000
	 D(10,9,8,22)     =        -1.057601         -60.596073
	 D(10,9,22,21)    =        -2.075429        -118.913320
	 D(10,22,6,16)    =        -2.090237        -119.761785
	 D(10,22,7,17)    =        -2.758129        -158.029138
	 D(10,22,8,18)    =         2.760146         158.144740
	 D(10,22,9,19)    =         2.114898         121.174702
	 D(11,1,2,12)     =         0.000000           0.000000
	 D(11,1,2,21)     =         2.135929         122.379698
	 D(11,1,5,15)     =         0.000000           0.000000
	 D(11,1,5,21)     =        -2.135929        -122.379698
	 D(11,1,21,22)    =         0.000000           0.000000
	 D(12,2,1,21)     =        -2.135929        -122.379698
	 D(12,2,3,13)     =         0.000000           0.000000
	 D(12,2,3,21)     =         2.104211         120.562414
	 D(12,2,21,22)    =         0.061418           3.518994
	 D(13,3,2,21)     =        -2.104211        -120.562414
	 D(13,3,4,14)     =         0.000000           0.000000
	 D(13,3,4,21)     =         2.083992         119.403927
	 D(13,3,21,22)    =         0.039469           2.261382
	 D(14,4,3,21)     =        -2.083992        -119.403927
	 D(14,4,5,15)     =         0.000000           0.000000
	 D(14,4,5,21)     =         2.104211         120.562414
	 D(14,4,21,22)    =        -0.039469          -2.261382
	 D(15,5,1,21)     =         2.135929         122.379698
	 D(15,5,4,21)     =        -2.104211        -120.562414
	 D(15,5,21,22)    =        -0.061418          -3.518994
	 D(16,6,7,17)     =        -0.000000          -0.000000
	 D(16,6,7,22)     =        -2.135929        -122.379698
	 D(16,6,10,20)    =         0.000000           0.000000
	 D(16,6,10,22)    =         2.135929         122.379698
	 D(16,6,22,21)    =         0.000000           0.000000
	 D(17,7,6,22)     =         2.135929         122.379698
	 D(17,7,8,18)     =         0.000000           0.000000
	 D(17,7,8,22)     =        -2.104211        -120.562414
	 D(17,7,22,21)    =        -0.061418          -3.518994
	 D(18,8,7,22)     =         2.104211         120.562414
	 D(18,8,9,19)     =        -0.000000          -0.000000
	 D(18,8,9,22)     =        -2.083992        -119.403927
	 D(18,8,22,21)    =        -0.039469          -2.261382
	 D(19,9,8,22)     =         2.083992         119.403927
	 D(19,9,10,20)    =        -0.000000          -0.000000
	 D(19,9,10,22)    =        -2.104211        -120.562414
	 D(19,9,22,21)    =         0.039469           2.261382
	 D(20,10,6,22)    =        -2.135929        -122.379698
	 D(20,10,9,22)    =         2.104211         120.562414
	 D(20,10,22,21)   =         0.061418           3.518994
	*R(1,6)           =        11.653311           6.166667
	*R(2,7)           =        11.653311           6.166667
	*R(3,8)           =        11.653311           6.166667
	*R(4,9)           =        11.653311           6.166667
	*R(5,10)          =        11.653311           6.166667


	        --- Internal Coordinate Step in ANG or DEG, aJ/ANG or AJ/DEG ---
	-------------------------------------------------------------------------------
	           Coordinate      Previous         Force          Change          New 
	           ----------      --------        ------          ------        ------
	               R(1,2)       1.33000        0.54878        0.04809       1.37809
	               R(1,5)       1.33000        0.54878        0.04809       1.37809
	              R(1,11)       1.08800       -0.05087       -0.00506       1.08294
	              R(1,21)       1.93000        0.52698        0.05976       1.98976
	               R(2,3)       1.33000        0.56117        0.04924       1.37924
	              R(2,12)       1.08800       -0.05068       -0.00504       1.08296
	              R(2,21)       1.90585        0.52868        0.06058       1.96643
	               R(3,4)       1.33000        0.57246        0.05022       1.38022
	              R(3,13)       1.08800       -0.05032       -0.00500       1.08300
	              R(3,21)       1.86611        0.53075        0.06192       1.92803
	               R(4,5)       1.33000        0.56117        0.04924       1.37924
	              R(4,14)       1.08800       -0.05031       -0.00500       1.08300
	              R(4,21)       1.86611        0.53075        0.06192       1.92803
	              R(5,15)       1.08800       -0.05068       -0.00504       1.08296
	              R(5,21)       1.90585        0.52868        0.06058       1.96643
	               R(6,7)       1.33000        0.54878        0.04809       1.37809
	              R(6,10)       1.33000        0.54878        0.04809       1.37809
	              R(6,16)       1.08800       -0.05087       -0.00506       1.08294
	              R(6,22)       1.93000        0.52698        0.05976       1.98976
	               R(7,8)       1.33000        0.56117        0.04924       1.37924
	              R(7,17)       1.08800       -0.05068       -0.00504       1.08296
	              R(7,22)       1.90585        0.52868        0.06058       1.96643
	               R(8,9)       1.33000        0.57246        0.05022       1.38022
	              R(8,18)       1.08800       -0.05032       -0.00500       1.08300
	              R(8,22)       1.86611        0.53075        0.06192       1.92803
	              R(9,10)       1.33000        0.56117        0.04924       1.37924
	              R(9,19)       1.08800       -0.05032       -0.00500       1.08300
	              R(9,22)       1.86611        0.53075        0.06192       1.92803
	             R(10,20)       1.08800       -0.05068       -0.00504       1.08296
	             R(10,22)       1.90585        0.52868        0.06058       1.96643
	             R(21,22)       3.12868       -0.61285       -0.09007       3.03861
	             B(1,2,3)     108.00000        0.00002        0.01873     108.01873
	            B(1,2,12)     126.00000        0.00003        0.04731     126.04731
	            B(1,2,21)      70.69160       -0.00029       -0.16559      70.52601
	             B(1,5,4)     108.00000        0.00002        0.01873     108.01873
	            B(1,5,15)     126.00000        0.00003        0.04731     126.04731
	            B(1,5,21)      70.69160       -0.00029       -0.16559      70.52601
	            B(1,21,2)      40.56859        0.00050        0.19734      40.76593
	            B(1,21,3)      69.04394        0.00094        0.35958      69.40352
	            B(1,21,4)      69.04394        0.00094        0.35958      69.40352
	            B(1,21,5)      40.56859        0.00050        0.19734      40.76593
	           B(1,21,22)     141.91000       -0.00044       -0.09267     141.81733
	             B(2,1,5)     108.00000        0.00005        0.05376     108.05376
	            B(2,1,11)     126.00000       -0.00003       -0.02695     125.97305
	            B(2,1,21)      68.73981       -0.00021       -0.03174      68.70806
	             B(2,3,4)     108.00000       -0.00004       -0.04561     107.95439
	            B(2,3,13)     126.00000        0.00005        0.05713     126.05713
	            B(2,3,21)      70.96413       -0.00033       -0.20616      70.75798
	            B(2,21,3)      41.27616        0.00052        0.19237      41.46853
	            B(2,21,4)      69.56402        0.00097        0.35749      69.92151
	            B(2,21,5)      68.74537        0.00093        0.35905      69.10442
	           B(2,21,22)     142.84606       -0.00049       -0.15645     142.68961
	            B(3,2,12)     126.00000       -0.00005       -0.06622     125.93378
	            B(3,2,21)      67.75970       -0.00019        0.01379      67.77349
	             B(3,4,5)     108.00000       -0.00004       -0.04561     107.95439
	            B(3,4,14)     126.00000       -0.00000       -0.01178     125.98822
	            B(3,4,21)      69.12344       -0.00027       -0.09697      69.02647
	            B(3,21,4)      41.75312        0.00054        0.19395      41.94706
	            B(3,21,5)      69.56402        0.00097        0.35749      69.92151
	           B(3,21,22)     144.48737       -0.00057       -0.27391     144.21346
	            B(4,3,13)     126.00000       -0.00000       -0.01178     125.98822
	            B(4,3,21)      69.12344       -0.00027       -0.09697      69.02647
	            B(4,5,15)     126.00000       -0.00005       -0.06622     125.93378
	            B(4,5,21)      67.75970       -0.00019        0.01379      67.77349
	            B(4,21,5)      41.27616        0.00052        0.19237      41.46853
	           B(4,21,22)     144.48737       -0.00057       -0.27391     144.21346
	            B(5,1,11)     126.00000       -0.00003       -0.02695     125.97305
	            B(5,1,21)      68.73981       -0.00021       -0.03174      68.70806
	            B(5,4,14)     126.00000        0.00005        0.05713     126.05713
	            B(5,4,21)      70.96413       -0.00033       -0.20616      70.75798
	           B(5,21,22)     142.84606       -0.00049       -0.15645     142.68961
	             B(6,7,8)     108.00000        0.00002        0.01873     108.01873
	            B(6,7,17)     126.00000        0.00003        0.04731     126.04731
	            B(6,7,22)      70.69160       -0.00029       -0.16559      70.52601
	            B(6,10,9)     108.00000        0.00002        0.01873     108.01873
	           B(6,10,20)     126.00000        0.00003        0.04731     126.04731
	           B(6,10,22)      70.69160       -0.00029       -0.16559      70.52601
	            B(6,22,7)      40.56859        0.00050        0.19734      40.76593
	            B(6,22,8)      69.04394        0.00094        0.35958      69.40352
	            B(6,22,9)      69.04394        0.00094        0.35958      69.40352
	           B(6,22,10)      40.56859        0.00050        0.19734      40.76593
	           B(6,22,21)     141.91000       -0.00044       -0.09267     141.81733
	            B(7,6,10)     108.00000        0.00005        0.05376     108.05376
	            B(7,6,16)     126.00000       -0.00003       -0.02695     125.97305
	            B(7,6,22)      68.73981       -0.00021       -0.03174      68.70806
	             B(7,8,9)     108.00000       -0.00004       -0.04561     107.95439
	            B(7,8,18)     126.00000        0.00005        0.05713     126.05713
	            B(7,8,22)      70.96413       -0.00033       -0.20616      70.75798
	            B(7,22,8)      41.27616        0.00052        0.19237      41.46853
	            B(7,22,9)      69.56402        0.00097        0.35749      69.92151
	           B(7,22,10)      68.74537        0.00093        0.35905      69.10442
	           B(7,22,21)     142.84606       -0.00049       -0.15645     142.68961
	            B(8,7,17)     126.00000       -0.00005       -0.06622     125.93378
	            B(8,7,22)      67.75970       -0.00019        0.01379      67.77349
	            B(8,9,10)     108.00000       -0.00004       -0.04561     107.95439
	            B(8,9,19)     126.00000       -0.00000       -0.01178     125.98822
	            B(8,9,22)      69.12344       -0.00027       -0.09697      69.02647
	            B(8,22,9)      41.75312        0.00054        0.19394      41.94706
	           B(8,22,10)      69.56402        0.00097        0.35749      69.92151
	           B(8,22,21)     144.48737       -0.00057       -0.27391     144.21346
	            B(9,8,18)     126.00000       -0.00000       -0.01178     125.98822
	            B(9,8,22)      69.12344       -0.00027       -0.09697      69.02647
	           B(9,10,20)     126.00000       -0.00005       -0.06622     125.93378
	           B(9,10,22)      67.75970       -0.00019        0.01379      67.77349
	           B(9,22,10)      41.27616        0.00052        0.19237      41.46853
	           B(9,22,21)     144.48737       -0.00057       -0.27391     144.21346
	           B(10,6,16)     126.00000       -0.00003       -0.02695     125.97305
	           B(10,6,22)      68.73981       -0.00021       -0.03174      68.70806
	           B(10,9,19)     126.00000        0.00005        0.05713     126.05713
	           B(10,9,22)      70.96413       -0.00033       -0.20616      70.75798
	          B(10,22,21)     142.84606       -0.00049       -0.15645     142.68961
	           B(11,1,21)     128.09000        0.00021       -0.00827     128.08173
	           B(12,2,21)     127.10190        0.00025        0.04324     127.14514
	           B(13,3,21)     125.49153        0.00031        0.13131     125.62283
	           B(14,4,21)     125.49153        0.00031        0.13131     125.62283
	           B(15,5,21)     127.10190        0.00025        0.04324     127.14514
	           B(16,6,22)     128.09000        0.00021       -0.00827     128.08173
	           B(17,7,22)     127.10190        0.00025        0.04324     127.14515
	           B(18,8,22)     125.49153        0.00031        0.13131     125.62283
	           B(19,9,22)     125.49153        0.00031        0.13131     125.62283
	          B(20,10,22)     127.10190        0.00025        0.04324     127.14514
	           D(1,2,3,4)       0.00000        0.00000        0.00000       0.00000
	          D(1,2,3,13)     180.00000        0.00032        0.17821     180.17821
	          D(1,2,3,21)     -59.43759        0.00049        0.21025     -59.22734
	          D(1,2,21,3)     119.80294        0.00034        0.12622     119.92916
	          D(1,2,21,4)      81.27741        0.00028        0.11680      81.39421
	          D(1,2,21,5)      36.97109        0.00001        0.01919      36.99028
	         D(1,2,21,22)    -117.53905        0.00004       -0.10707    -117.64612
	           D(1,5,4,3)       0.00000        0.00000       -0.00000      -0.00000
	          D(1,5,4,14)     180.00000       -0.00032       -0.17821     179.82179
	          D(1,5,4,21)      59.43759       -0.00049       -0.21025      59.22734
	          D(1,5,21,2)     -36.97109       -0.00001       -0.01919     -36.99028
	          D(1,5,21,3)     -81.27741       -0.00028       -0.11680     -81.39421
	          D(1,5,21,4)    -119.80294       -0.00034       -0.12621    -119.92916
	         D(1,5,21,22)     117.53905       -0.00004        0.10707     117.64612
	          D(1,21,2,3)    -119.80294       -0.00034       -0.12622    -119.92916
	         D(1,21,2,12)     121.05805       -0.00014       -0.04991     121.00814
	          D(1,21,3,2)      37.17949        0.00002        0.01578      37.19526
	          D(1,21,3,4)     -81.60087       -0.00030       -0.11634     -81.71721
	         D(1,21,3,13)     158.35419       -0.00012       -0.03945     158.31474
	          D(1,21,4,3)      81.60087        0.00030        0.11634      81.71721
	          D(1,21,4,5)     -37.17949       -0.00002       -0.01578     -37.19526
	         D(1,21,4,14)    -158.35419        0.00012        0.03945    -158.31474
	          D(1,21,5,4)     119.80294        0.00034        0.12621     119.92916
	         D(1,21,5,15)    -121.05805        0.00014        0.04991    -121.00814
	         D(1,21,22,6)       0.00000       -0.00000       -0.00000      -0.00000
	         D(1,21,22,7)     -69.19402       -0.00009       -0.14716     -69.34118
	         D(1,21,22,8)    -142.15894       -0.00006       -0.09948    -142.25842
	         D(1,21,22,9)     142.15894        0.00006        0.09948     142.25842
	        D(1,21,22,10)      69.19402        0.00009        0.14716      69.34118
	           D(2,1,5,4)       0.00000        0.00000        0.00000       0.00000
	          D(2,1,5,15)     180.00000       -0.00030       -0.14560     179.85440
	          D(2,1,5,21)      57.62030       -0.00042       -0.09556      57.52474
	          D(2,1,21,3)     -37.80561       -0.00003       -0.00738     -37.81299
	          D(2,1,21,4)     -82.67082       -0.00032       -0.10426     -82.77508
	          D(2,1,21,5)    -120.47643       -0.00035       -0.11164    -120.58807
	         D(2,1,21,22)     119.76178       -0.00017       -0.05582     119.70597
	           D(2,3,4,5)       0.00000       -0.00000       -0.00000      -0.00000
	          D(2,3,4,14)     180.00000        0.00032        0.17801     180.17801
	          D(2,3,4,21)     -60.59607        0.00053        0.28073     -60.31534
	          D(2,3,21,4)     118.78036        0.00031        0.13212     118.91248
	          D(2,3,21,5)      80.68056        0.00027        0.12137      80.80193
	         D(2,3,21,22)    -118.91332        0.00007       -0.04915    -118.96247
	          D(2,21,1,5)     120.47643        0.00035        0.11164     120.58807
	         D(2,21,1,11)    -119.76178        0.00017        0.05582    -119.70597
	          D(2,21,3,4)    -118.78036       -0.00031       -0.13212    -118.91248
	         D(2,21,3,13)     121.17470       -0.00014       -0.05523     121.11948
	          D(2,21,4,3)      38.09980        0.00005        0.01075      38.11054
	          D(2,21,4,5)     -80.68056       -0.00027       -0.12137     -80.80193
	         D(2,21,4,14)     158.14474       -0.00013       -0.06615     158.07859
	          D(2,21,5,4)      82.83185        0.00033        0.10703      82.93888
	         D(2,21,5,15)    -158.02914        0.00013        0.03072    -157.99842
	         D(2,21,22,6)      69.19402        0.00009        0.14716      69.34118
	         D(2,21,22,7)       0.00000        0.00000        0.00000       0.00000
	         D(2,21,22,8)     -72.96492        0.00003        0.04768     -72.91724
	         D(2,21,22,9)    -148.64704        0.00016        0.24664    -148.40040
	        D(2,21,22,10)     138.38804        0.00019        0.29433     138.68237
	           D(3,2,1,5)       0.00000       -0.00000       -0.00000      -0.00000
	          D(3,2,1,11)     180.00000       -0.00029       -0.12529     179.87471
	          D(3,2,1,21)      57.62030       -0.00042       -0.09563      57.52467
	          D(3,2,21,4)     -38.52553       -0.00006       -0.00942     -38.53494
	          D(3,2,21,5)     -82.83185       -0.00033       -0.10703     -82.93888
	         D(3,2,21,22)     122.65801       -0.00030       -0.23329     122.42472
	          D(3,4,5,15)     180.00000        0.00030        0.14541     180.14541
	          D(3,4,5,21)     -59.43759        0.00049        0.21021     -59.22738
	          D(3,4,21,5)     118.78036        0.00031        0.13212     118.91248
	         D(3,4,21,22)    -122.30632        0.00024        0.18126    -122.12506
	          D(3,21,1,5)      82.67082        0.00032        0.10426      82.77508
	         D(3,21,1,11)    -157.56739        0.00015        0.04844    -157.51896
	         D(3,21,2,12)    -119.13901        0.00020        0.07631    -119.06270
	          D(3,21,4,5)    -118.78036       -0.00031       -0.13212    -118.91248
	         D(3,21,4,14)     120.04494       -0.00017       -0.07689     119.96805
	          D(3,21,5,4)      38.52553        0.00006        0.00942      38.53494
	         D(3,21,5,15)     157.66454       -0.00014       -0.06689     157.59765
	         D(3,21,22,6)     142.15894        0.00006        0.09948     142.25842
	         D(3,21,22,7)      72.96492       -0.00003       -0.04768      72.91724
	         D(3,21,22,8)       0.00000        0.00000        0.00000       0.00000
	         D(3,21,22,9)     -75.68212        0.00012        0.19896     -75.48316
	        D(3,21,22,10)    -148.64704        0.00016        0.24664    -148.40040
	          D(4,3,2,12)     180.00000       -0.00030       -0.14541     179.85459
	          D(4,3,2,21)      59.43759       -0.00049       -0.21021      59.22738
	          D(4,3,21,5)     -38.09980       -0.00005       -0.01075     -38.11054
	         D(4,3,21,22)     122.30632       -0.00024       -0.18127     122.12506
	          D(4,5,1,11)     180.00000        0.00029        0.12529     180.12529
	          D(4,5,1,21)     -57.62030        0.00042        0.09563     -57.52467
	         D(4,5,21,22)    -122.65801        0.00030        0.23329    -122.42472
	          D(4,21,1,5)      37.80561        0.00003        0.00738      37.81299
	         D(4,21,1,11)     157.56739       -0.00015       -0.04844     157.51896
	         D(4,21,2,12)    -157.66454        0.00014        0.06689    -157.59765
	         D(4,21,3,13)    -120.04494        0.00017        0.07689    -119.96805
	         D(4,21,5,15)     119.13901       -0.00020       -0.07631     119.06270
	         D(4,21,22,6)    -142.15894       -0.00006       -0.09948    -142.25842
	         D(4,21,22,7)     148.64704       -0.00016       -0.24664     148.40040
	         D(4,21,22,8)      75.68212       -0.00012       -0.19896      75.48316
	         D(4,21,22,9)      -0.00000        0.00000        0.00000       0.00000
	        D(4,21,22,10)     -72.96492        0.00003        0.04768     -72.91724
	          D(5,1,2,12)     180.00000        0.00030        0.14560     180.14560
	          D(5,1,2,21)     -57.62030        0.00042        0.09556     -57.52474
	         D(5,1,21,22)    -119.76178        0.00017        0.05582    -119.70597
	          D(5,4,3,13)     180.00000       -0.00032       -0.17801     179.82199
	          D(5,4,3,21)      60.59607       -0.00053       -0.28073      60.31534
	         D(5,4,21,22)     118.91332       -0.00007        0.04915     118.96247
	         D(5,21,1,11)     119.76178       -0.00017       -0.05582     119.70597
	         D(5,21,2,12)     158.02914       -0.00013       -0.03072     157.99842
	         D(5,21,3,13)    -158.14474        0.00013        0.06615    -158.07859
	         D(5,21,4,14)    -121.17470        0.00014        0.05523    -121.11948
	         D(5,21,22,6)     -69.19402       -0.00009       -0.14716     -69.34118
	         D(5,21,22,7)    -138.38804       -0.00019       -0.29433    -138.68237
	         D(5,21,22,8)     148.64704       -0.00016       -0.24664     148.40040
	         D(5,21,22,9)      72.96492       -0.00003       -0.04768      72.91724
	        D(5,21,22,10)      -0.00000        0.00000        0.00000      -0.00000
	           D(6,7,8,9)      -0.00000        0.00000        0.00000      -0.00000
	          D(6,7,8,18)     180.00000       -0.00032       -0.17821     179.82179
	          D(6,7,8,22)      59.43759       -0.00049       -0.21025      59.22734
	          D(6,7,22,8)    -119.80294       -0.00034       -0.12621    -119.92916
	          D(6,7,22,9)     -81.27741       -0.00028       -0.11680     -81.39421
	         D(6,7,22,10)     -36.97109       -0.00001       -0.01919     -36.99028
	         D(6,7,22,21)     117.53905       -0.00004        0.10707     117.64612
	          D(6,10,9,8)      -0.00000        0.00000        0.00000       0.00000
	         D(6,10,9,19)     180.00000        0.00032        0.17821     180.17821
	         D(6,10,9,22)     -59.43759        0.00049        0.21025     -59.22734
	         D(6,10,22,7)      36.97109        0.00001        0.01919      36.99028
	         D(6,10,22,8)      81.27741        0.00028        0.11680      81.39421
	         D(6,10,22,9)     119.80294        0.00034        0.12621     119.92916
	        D(6,10,22,21)    -117.53905        0.00004       -0.10707    -117.64612
	          D(6,22,7,8)     119.80294        0.00034        0.12621     119.92916
	         D(6,22,7,17)    -121.05805        0.00014        0.04991    -121.00814
	          D(6,22,8,7)     -37.17949       -0.00002       -0.01578     -37.19526
	          D(6,22,8,9)      81.60087        0.00030        0.11634      81.71721
	         D(6,22,8,18)    -158.35419        0.00012        0.03945    -158.31474
	          D(6,22,9,8)     -81.60087       -0.00030       -0.11634     -81.71721
	         D(6,22,9,10)      37.17949        0.00002        0.01578      37.19526
	         D(6,22,9,19)     158.35419       -0.00012       -0.03945     158.31474
	         D(6,22,10,9)    -119.80294       -0.00034       -0.12621    -119.92916
	        D(6,22,10,20)     121.05805       -0.00014       -0.04991     121.00814
	          D(7,6,10,9)       0.00000        0.00000       -0.00000      -0.00000
	         D(7,6,10,20)     180.00000        0.00030        0.14560     180.14560
	         D(7,6,10,22)     -57.62030        0.00042        0.09556     -57.52474
	          D(7,6,22,8)      37.80561        0.00003        0.00738      37.81299
	          D(7,6,22,9)      82.67082        0.00032        0.10426      82.77508
	         D(7,6,22,10)     120.47643        0.00035        0.11164     120.58807
	         D(7,6,22,21)    -119.76178        0.00017        0.05582    -119.70597
	          D(7,8,9,10)       0.00000       -0.00000       -0.00000      -0.00000
	          D(7,8,9,19)     180.00000       -0.00032       -0.17801     179.82199
	          D(7,8,9,22)      60.59607       -0.00053       -0.28073      60.31534
	          D(7,8,22,9)    -118.78036       -0.00031       -0.13212    -118.91248
	         D(7,8,22,10)     -80.68056       -0.00027       -0.12137     -80.80193
	         D(7,8,22,21)     118.91332       -0.00007        0.04915     118.96247
	         D(7,22,6,10)    -120.47643       -0.00035       -0.11164    -120.58807
	         D(7,22,6,16)     119.76178       -0.00017       -0.05582     119.70597
	          D(7,22,8,9)     118.78036        0.00031        0.13212     118.91248
	         D(7,22,8,18)    -121.17470        0.00014        0.05523    -121.11948
	          D(7,22,9,8)     -38.09980       -0.00005       -0.01075     -38.11054
	         D(7,22,9,10)      80.68056        0.00027        0.12137      80.80193
	         D(7,22,9,19)    -158.14474        0.00013        0.06615    -158.07859
	         D(7,22,10,9)     -82.83185       -0.00033       -0.10703     -82.93888
	        D(7,22,10,20)     158.02914       -0.00013       -0.03072     157.99842
	          D(8,7,6,10)      -0.00000       -0.00000        0.00000       0.00000
	          D(8,7,6,16)     180.00000        0.00029        0.12529     180.12529
	          D(8,7,6,22)     -57.62030        0.00042        0.09563     -57.52467
	          D(8,7,22,9)      38.52553        0.00006        0.00942      38.53494
[...]
	         D(6,22,7,17)    -119.96768       -0.00008       -0.20889    -120.17657
	          D(6,22,8,7)     -37.70453        0.00002        0.04325     -37.66128
	          D(6,22,8,9)      82.32463       -0.00015       -0.38044      81.94419
	         D(6,22,8,18)    -157.77509       -0.00006       -0.16956    -157.94465
	          D(6,22,9,8)     -82.18728        0.00016        0.39473     -81.79255
	         D(6,22,9,10)      37.78216       -0.00001       -0.03744      37.74472
	         D(6,22,9,19)     157.77223        0.00007        0.17540     157.94764
	         D(6,22,10,9)    -119.95127        0.00017        0.42678    -119.52449
	        D(6,22,10,20)     120.10701        0.00008        0.21456     120.32157
	          D(7,6,10,9)      -0.00343       -0.00000        0.00001      -0.00342
	         D(7,6,10,20)     181.91781       -0.00015       -0.39533     181.52248
	         D(7,6,10,22)     -58.27657       -0.00023       -0.60534     -58.88191
	          D(7,6,22,8)      37.70131       -0.00002       -0.04096      37.66034
	          D(7,6,22,9)      82.24114       -0.00016       -0.39237      81.84877
	         D(7,6,22,10)     120.10354       -0.00017       -0.44313     119.66040
	         D(7,6,22,21)    -119.71994       -0.00009       -0.23003    -119.94997
	          D(7,8,9,10)      -0.00000       -0.00000        0.00000      -0.00000
	          D(7,8,9,19)     178.16234        0.00015        0.39410     178.55644
	          D(7,8,9,22)      58.29171        0.00024        0.60575      58.89746
	          D(7,8,22,9)    -120.02916        0.00016        0.42369    -119.60547
	         D(7,8,22,10)     -82.18714        0.00015        0.37848     -81.80866
	         D(7,8,22,21)     119.73472        0.00009        0.22774     119.96246
	         D(7,22,6,10)    -120.10354        0.00017        0.44313    -119.66040
	         D(7,22,6,16)     120.00154        0.00009        0.21932     120.22087
	          D(7,22,8,9)     120.02916       -0.00016       -0.42369     119.60547
	         D(7,22,8,18)    -120.07056       -0.00008       -0.21281    -120.28337
	          D(7,22,9,8)     -37.72931        0.00002        0.04490     -37.68441
	         D(7,22,9,10)      82.24013       -0.00015       -0.38727      81.85287
	         D(7,22,9,19)    -157.76980       -0.00007       -0.17443    -157.94422
	         D(7,22,10,9)     -82.25090        0.00015        0.38865     -81.86225
	        D(7,22,10,20)     157.80739        0.00007        0.17643     157.98382
	          D(8,7,6,10)       0.00314        0.00000        0.00000       0.00314
	          D(8,7,6,16)     181.89354       -0.00015       -0.39656     181.49697
	          D(8,7,6,22)     -58.11330       -0.00024       -0.61372     -58.72702
	          D(8,7,22,9)      37.79572       -0.00002       -0.04795      37.74777
	         D(8,7,22,10)      82.38487       -0.00016       -0.40198      81.98289
	         D(8,7,22,21)    -119.91601       -0.00009       -0.22316    -120.13918
	         D(8,9,10,20)     178.08198        0.00015        0.39539     178.47737
	         D(8,9,10,22)      58.40130        0.00023        0.59493      58.99623
	         D(8,9,22,10)    -119.96944        0.00017        0.43217    -119.53727
	         D(8,9,22,21)     119.84717        0.00009        0.22911     120.07628
	         D(8,22,6,10)     -82.40223        0.00016        0.40217     -82.00006
	         D(8,22,6,16)     157.70285        0.00007        0.17836     157.88121
	         D(8,22,7,17)     119.92489        0.00009        0.22061     120.14550
	         D(8,22,9,10)     119.96944       -0.00017       -0.43217     119.53727
	         D(8,22,9,19)    -120.04049       -0.00009       -0.21933    -120.25982
	         D(8,22,10,9)     -37.80283        0.00002        0.04327     -37.75956
	        D(8,22,10,20)    -157.74454       -0.00007       -0.16895    -157.91349
	          D(9,8,7,17)     181.88233       -0.00015       -0.40098     181.48135
	          D(9,8,7,22)     -58.10618       -0.00024       -0.61983     -58.72602
	         D(9,8,22,10)      37.84202       -0.00002       -0.04521      37.79681
	         D(9,8,22,21)    -120.23612       -0.00008       -0.19595    -120.43207
	         D(9,10,6,16)     178.10514        0.00015        0.39688     178.50203
	         D(9,10,6,22)      58.27314        0.00023        0.60535      58.87849
	        D(9,10,22,21)     120.18495        0.00008        0.20125     120.38620
	         D(9,22,6,10)     -37.86240        0.00002        0.05077     -37.81163
	         D(9,22,6,16)    -157.75732       -0.00007       -0.17304    -157.93036
	         D(9,22,7,17)     157.72061        0.00007        0.17266     157.89327
	         D(9,22,8,18)     119.90028        0.00008        0.21088     120.11116
	        D(9,22,10,20)    -119.94172       -0.00008       -0.21222    -120.15393
	         D(10,6,7,17)     178.11816        0.00016        0.40145     178.51961
	         D(10,6,7,22)      58.11644        0.00024        0.61372      58.73016
	        D(10,6,22,21)     120.17652        0.00008        0.21310     120.38962
	         D(10,9,8,18)     181.84391       -0.00015       -0.39995     181.44396
	         D(10,9,8,22)     -58.29217       -0.00024       -0.60574     -58.89791
	        D(10,9,22,21)    -120.18339       -0.00008       -0.20306    -120.38645
	        D(10,22,6,16)    -119.89492       -0.00009       -0.22381    -120.11873
	        D(10,22,7,17)    -157.69024       -0.00007       -0.18137    -157.87161
	        D(10,22,8,18)     157.74230        0.00006        0.16567     157.90797
	        D(10,22,9,19)     119.99007        0.00008        0.21284     120.20291
	         D(11,1,2,12)      -0.01061       -0.00000       -0.00486      -0.01547
	         D(11,1,2,21)     119.99283       -0.00008       -0.21729     119.77555
	         D(11,1,5,15)      -0.02558       -0.00000       -0.00151      -0.02709
	         D(11,1,5,21)    -119.83161        0.00008        0.20849    -119.62312
	        D(11,1,21,22)      -0.27921        0.00000        0.01077      -0.26844
	         D(12,2,1,21)    -120.00344        0.00008        0.21243    -119.79101
	         D(12,2,3,13)      -0.03905        0.00000        0.00145      -0.03760
	         D(12,2,3,21)     120.01204       -0.00009       -0.21894     119.79310
	        D(12,2,21,22)       0.02852        0.00000        0.00264       0.03117
	         D(13,3,2,21)    -120.05109        0.00009        0.22039    -119.83070
	         D(13,3,4,14)      -0.00631        0.00000        0.00631      -0.00000
	         D(13,3,4,21)     119.86468       -0.00008       -0.20591     119.65877
	        D(13,3,21,22)       0.35678       -0.00001       -0.01489       0.34189
	         D(14,4,3,21)    -119.87100        0.00008        0.21158    -119.65942
	         D(14,4,5,15)       0.08140       -0.00000       -0.00076       0.08063
	         D(14,4,5,21)     119.76161       -0.00008       -0.20033     119.56128
	        D(14,4,21,22)       0.16698       -0.00000       -0.00972       0.15726
	         D(15,5,1,21)     119.80603       -0.00008       -0.21000     119.59602
	         D(15,5,4,21)    -119.68021        0.00008        0.19957    -119.48064
	        D(15,5,21,22)      -0.27745        0.00001        0.01072      -0.26673
	         D(16,6,7,17)       0.00856        0.00000        0.00489       0.01344
	         D(16,6,7,22)    -119.99317        0.00008        0.21716    -119.77600
	        D(16,6,10,20)       0.02638        0.00000        0.00154       0.02792
	        D(16,6,10,22)     119.83200       -0.00008       -0.20846     119.62354
	        D(16,6,22,21)       0.28160       -0.00000       -0.01071       0.27090
	         D(17,7,6,22)     120.00173       -0.00008       -0.21228     119.78945
	         D(17,7,8,18)       0.03824       -0.00000       -0.00136       0.03689
	         D(17,7,8,22)    -120.01148        0.00009        0.21885    -119.79263
	        D(17,7,22,21)       0.00887       -0.00000       -0.00255       0.00632
	         D(18,8,7,22)     120.04973       -0.00009       -0.22021     119.82952
	         D(18,8,9,19)       0.00671       -0.00000       -0.00586       0.00085
	         D(18,8,9,22)    -119.86392        0.00008        0.20579    -119.65813
	        D(18,8,22,21)      -0.33584        0.00001        0.01493      -0.32091
	         D(19,9,8,22)     119.87063       -0.00008       -0.21165     119.65898
	        D(19,9,10,20)      -0.07973        0.00000        0.00079      -0.07894
	        D(19,9,10,22)    -119.76041        0.00008        0.20033    -119.56008
	        D(19,9,22,21)      -0.19332        0.00000        0.00978      -0.18354
	        D(20,10,6,22)    -119.80562        0.00008        0.21001    -119.59562
	        D(20,10,9,22)     119.68068       -0.00008       -0.19954     119.48114
	       D(20,10,22,21)       0.24323       -0.00001       -0.01097       0.23227
	              *R(1,6)       5.66650       -0.00000        0.00000       5.66650
	              *R(2,7)       5.66650        0.00000        0.00000       5.66650
	              *R(3,8)       5.66650       -0.00000        0.00000       5.66650
	              *R(4,9)       5.66656       -0.00000        0.00000       5.66657
	             *R(5,10)       5.66664       -0.00000        0.00000       5.66664
	-------------------------------------------------------------------------------

	                                 ==> Convergence Check <==                                  
    
	Measures of convergence in internal coordinates in au.
    
	Criteria marked as inactive (o), active & met (*), and active & unmet ( ).

	----------------------------------------------------------------------------------------------
	   Step    Total Energy     Delta E     Max Force     RMS Force      Max Disp      RMS Disp   
	----------------------------------------------------------------------------------------------
	  Convergence Criteria     1.00e-06 *    3.00e-04 *             o    1.20e-03 *             o
	----------------------------------------------------------------------------------------------
	    40    -787.33201911    3.71e-02      4.02e-02      3.83e-03 o    1.38e-01      1.32e-02 o  ~
	----------------------------------------------------------------------------------------------

Next Geometry in Ang 
	Fragment 1 (Ang)

	    C   2.8332551022   0.9843040501  -0.7127819435
	    C   2.8332508728   0.9839653100   0.7159978247
	    C   2.8332472250  -0.3750743684   1.1569467020
	    C   2.8332701261  -1.2140158373   0.0002421332
	    C   2.8333136686  -0.3733010456  -1.1553049428
	    C  -2.8332487976   0.9846686194  -0.7130663472
	    C  -2.8332511876   0.9843193796   0.7157099469
	    C  -2.8332555131  -0.3747080764   1.1566702193
	    C  -2.8332952145  -1.2136452793  -0.0000365786
	    C  -2.8333260475  -0.3729279908  -1.1555818384
	    H   2.8104628957   1.8560228568  -1.3449072966
	    H   2.8107071339   1.8547354411   1.3493914016
	    H   2.8112779737  -0.7084859745   2.1808085385
	    H   2.8113221238  -2.2908082034  -0.0002493414
	    H   2.8101709420  -0.7056054385  -2.1795067602
	    H  -2.8104686269   1.8563930446  -1.3451847108
	    H  -2.8106946147   1.8550846621   1.3491108565
	    H  -2.8112700785  -0.7081123636   2.1805336567
	    H  -2.8113489624  -2.2904375756  -0.0005388207
	    H  -2.8101993914  -0.7052535487  -2.1797775635
	   Mg   1.2069378430  -0.0036557332  -0.0021182908
	   Mg  -1.2069212918  -0.0032841433  -0.0024222452


    Structure for next step:
    Molecular point group: c1
    Full point group: C1

    Geometry (in Angstrom), charge = 0, multiplicity = 1:

    C       
    C             1         dcc
    C             2         dcc      1  107.989561
    C             3         dcc      2  107.976869      1    0.000882
    C             4         dcc      3  108.009504      2    0.001085
    C             1         drr      2   90.002707      3   90.003587
    C             2         drr      3   90.004157      4   89.999349
    C             3         drr      4   90.000830      5   89.996898
    C             8         dcc      7  107.976092      6   -0.001662
    C             9         dcc      8  108.009571      7   -0.000448
    H             1         dch      2  125.951950      3  178.501790
    H             2         dch      3  125.982958      4  178.518633
    H             3         dch      4  126.001129      5  178.557381
    H             4         dch      5  126.002895      1  178.554788
    H             5         dch      1  126.019900      2  178.476507
    H             6         dch      7  125.951911      8 -178.503025
    H             7         dch      8  125.981903      9 -178.518646
    H             8         dch      9  126.001720     10 -178.556040
    H             9         dch     10  126.002434      6 -178.553919
    H            10         dch      6  126.020884      7 -178.477524
    MG            1        dcbe     11       achbe      6    0.161412
    MG            6        dcbe     16       achbe      1   -0.161795

    achbe     =  125.5954680824
    dcbe      =    2.0312574571
    dcc       =    1.4290172873
    dch       =    1.0770106787
    drr       =    5.6665027567


Scratch directory: /tmp/929060.2.gen4.q/
gradient() will perform analytic gradient computation.
   => Libint2 <=

    Primary   basis highest AM E, G, H:  5, 4, 3
    Auxiliary basis highest AM E, G, H:  6, 5, 4
    Onebody   basis highest AM E, G, H:  6, 5, 4
    Solid Harmonics ordering:            gaussian

*** tstart() called on n054
*** at Wed Aug 23 09:44:29 2023

   => Loading Basis Set <=

    Name: CC-PVTZ
    Role: ORBITAL
    Keyword: BASIS
    atoms 1-10  entry C          line   186 file /opt/psi/4/1.9a/share/psi4/basis/cc-pvtz.gbs 
    atoms 11-20 entry H          line    23 file /opt/psi/4/1.9a/share/psi4/basis/cc-pvtz.gbs 
    atoms 21-22 entry MG         line   465 file /opt/psi/4/1.9a/share/psi4/basis/cc-pvtz.gbs 


         ---------------------------------------------------------
                                   SCF
               by Justin Turney, Rob Parrish, Andy Simmonett
                          and Daniel G. A. Smith
                              RKS Reference
                        4 Threads,    500 MiB Core
         ---------------------------------------------------------

  ==> Geometry <==

    Molecular point group: c1
    Full point group: C1

    Geometry (in Angstrom), charge = 0, multiplicity = 1:

       Center              X                  Y                   Z               Mass       
    ------------   -----------------  -----------------  -----------------  -----------------
         C            2.833250952190     0.984200562513    -0.713205927893    12.000000000000
         C            2.833250952190     0.984200562513     0.715811359440    12.000000000000
         C            2.833250952190    -0.374956072027     1.157154366952    12.000000000000
         C            2.833271877506    -1.214233847231     0.000563158656    12.000000000000
         C            2.833310550758    -0.373793040228    -1.155183204490    12.000000000000
         C           -2.833251787051     0.984555300262    -0.713473644569    12.000000000000
         C           -2.833251787533     0.984544799748     0.715540170978    12.000000000000
         C           -2.833251787311    -0.374599609674     1.156894570766    12.000000000000
         C           -2.833291210342    -1.213873528319     0.000300564459    12.000000000000
         C           -2.833326195044    -0.373430222235    -1.155443981508    12.000000000000
         H            2.810455800822     1.855753050822    -1.345525976023     1.007825032230
         H            2.810707433907     1.855126705478     1.349002835498     1.007825032230
         H            2.811285182838    -0.708126832214     2.181101021618     1.007825032230
         H            2.811325844920    -2.291020881872     0.000327039763     1.007825032230
         H            2.810165364032    -0.706556019170    -2.179236475685     1.007825032230
         H           -2.810475407196     1.856113352932    -1.345786699484     1.007825032230
         H           -2.810696315761     1.855465658612     1.348738489325     1.007825032230
         H           -2.811263629061    -0.707763084267     2.180843115451     1.007825032230
         H           -2.811342228371    -2.290660500405     0.000053574703     1.007825032230
         H           -2.810200382448    -0.706213846522    -2.179490981536     1.007825032230
         MG           1.206940855658    -0.003594363084    -0.002302620818    23.985041697000
         MG          -1.206920491896    -0.003226191575    -0.002600167842    23.985041697000

  Running in c1 symmetry.

  Rotational constants: A =      0.07322  B =      0.01373  C =      0.01373 [cm^-1]
  Rotational constants: A =   2195.10948  B =    411.58866  C =    411.56690 [MHz]
  Nuclear repulsion =  749.913168227497636

  Charge       = 0
  Multiplicity = 1
  Electrons    = 94
  Nalpha       = 47
  Nbeta        = 47

  ==> Algorithm <==

  SCF Algorithm Type is DF.
  DIIS enabled.
  MOM disabled.
  Fractional occupation disabled.
  Guess Type is READ.
  Energy threshold   = 1.00e-08
  Density threshold  = 1.00e-08
  Integral threshold = 1.00e-12

  ==> Primary Basis <==

  Basis Set: CC-PVTZ
    Blend: CC-PVTZ
    Number of shells: 184
    Number of basis functions: 508
    Number of Cartesian functions: 578
    Spherical Harmonics?: true
    Max angular momentum: 3

  ==> DFT Potential <==

   => LibXC <=

    Version 6.1.0
    S. Lehtola, C. Steigemann, M. J.T. Oliveira, and M. A.L. Marques.,  SoftwareX 7, 1–5 (2018) (10.1016/j.softx.2017.11.002)

   => Composite Functional: B3LYP <= 

    B3LYP Hyb-GGA Exchange-Correlation Functional

    P. J. Stephens, F. J. Devlin, C. F. Chabalowski, and M. J. Frisch.,  J. Phys. Chem. 98, 11623 (1994) (10.1021/j100096a001)

    Deriv               =              1
    GGA                 =           TRUE
    Meta                =          FALSE

    Exchange Hybrid     =           TRUE
    MP2 Hybrid          =          FALSE

   => Exchange Functionals <=

    0.0800   Slater exchange
    0.7200         Becke 88

   => Exact (HF) Exchange <=

    0.2000               HF 

   => Correlation Functionals <=

    0.1900   Vosko, Wilk & Nusair (VWN5_RPA)
    0.8100   Lee, Yang & Parr

   => LibXC Density Thresholds  <==

    XC_HYB_GGA_XC_B3LYP:  1.00E-15 

   => Molecular Quadrature <=

    Radial Scheme          =       TREUTLER
    Pruning Scheme         =           NONE
    Nuclear Scheme         =       TREUTLER

    Blocking Scheme        =         OCTREE
    BS radius alpha        =              1
    Pruning alpha          =              1
    Radial Points          =             75
    Spherical Points       =            302
    Total Points           =         458839
    Total Blocks           =           3323
    Max Points             =            256
    Max Functions          =            404
    Weights Tolerance      =       1.00E-15

   => Loading Basis Set <=

    Name: (CC-PVTZ AUX)
    Role: JKFIT
    Keyword: DF_BASIS_SCF
    atoms 1-10  entry C          line   125 file /opt/psi/4/1.9a/share/psi4/basis/cc-pvtz-jkfit.gbs 
    atoms 11-20 entry H          line    51 file /opt/psi/4/1.9a/share/psi4/basis/cc-pvtz-jkfit.gbs 
    atoms 21-22 entry MG         line   576 file /opt/psi/4/1.9a/share/psi4/basis/def2-universal-jkfit.gbs 

   => Loading Basis Set <=

    Name: CC-PVTZ
    Role: ORBITAL
    Keyword: BASIS
    atoms 1-10  entry C          line   186 file /opt/psi/4/1.9a/share/psi4/basis/cc-pvtz.gbs 
    atoms 11-20 entry H          line    23 file /opt/psi/4/1.9a/share/psi4/basis/cc-pvtz.gbs 
    atoms 21-22 entry MG         line   465 file /opt/psi/4/1.9a/share/psi4/basis/cc-pvtz.gbs 

  Reading orbitals from file /tmp/929060.2.gen4.q/output.default.1788.180.npy, no projection.

  ==> Integral Setup <==

