
    -----------------------------------------------------------------------
          Psi4: An Open-Source Ab Initio Electronic Structure Package
                               Psi4 1.9a1.dev12 

                         Git: Rev {master} 6ebe472 dirty


    D. G. A. Smith, L. A. Burns, A. C. Simmonett, R. M. Parrish,
    M. C. Schieber, R. Galvelis, P. Kraus, H. Kruse, R. Di Remigio,
    A. Alenaizan, A. M. James, S. Lehtola, J. P. Misiewicz, M. Scheurer,
    R. A. Shaw, J. B. Schriber, Y. Xie, Z. L. Glick, D. A. Sirianni,
    J. S. O'Brien, J. M. Waldrop, A. Kumar, E. G. Hohenstein,
    B. P. Pritchard, B. R. Brooks, H. F. Schaefer III, A. Yu. Sokolov,
    K. Patkowski, A. E. DePrince III, U. Bozkaya, R. A. King,
    F. A. Evangelista, J. M. Turney, T. D. Crawford, C. D. Sherrill,
    J. Chem. Phys. 152(18) 184108 (2020). https://doi.org/10.1063/5.0006002

                            Additional Code Authors
    E. T. Seidl, C. L. Janssen, E. F. Valeev, M. L. Leininger,
    J. F. Gonthier, R. M. Richard, H. R. McAlexander, M. Saitow, X. Wang,
    P. Verma, M. H. Lechner, A. Jiang, S. Behnle, A. G. Heide,
    M. F. Herbst, and D. L. Poole

             Previous Authors, Complete List of Code Contributors,
                       and Citations for Specific Modules
    https://github.com/psi4/psi4/blob/master/codemeta.json
    https://github.com/psi4/psi4/graphs/contributors
    http://psicode.org/psi4manual/master/introduction.html#citing-psifour

    -----------------------------------------------------------------------


    Psi4 started on: Monday, 28 August 2023 11:25AM

    Process ID: 12811
    Host:       n023
    PSIDATADIR: /opt/psi/4/1.9a/share/psi4
    Memory:     500.0 MiB
    Threads:    4
    
  ==> Input File <==

--------------------------------------------------------------------------
import math
import os
import time
import pickle
import numpy as np

file_name = "methods"
job_id = os.environ["JOB_ID"]

# Minimal geometry from experiment.

becp = geometry("""
0 1
symmetry c1

Be 6.07874 2.45740 2.20602
Be 7.89690 2.43374 3.14396
C 8.72687 2.56070 4.91891
H 8.17652 2.68889 5.84031
C 9.17774 3.60056 4.06841
H 9.03081 4.65933 4.22871
C 9.76230 3.00649 2.92240
H 10.13855 3.53358 2.05701
C 9.67272 1.59945 3.06466
H 9.96894 0.86746 2.32660
C 9.03279 1.32392 4.29858
H 8.75633 0.34533 4.66493
C 5.19099 3.05518 0.55978
H 5.69006 3.57212 -0.24768
C 5.09296 1.64977 0.71226
H 5.50429 0.90896 0.04123
C 4.45261 1.38708 1.94876
H 4.29105 0.41114 2.38432
C 4.15477 2.63011 2.56046
H 3.72671 2.76661 3.54352
C 4.61116 3.66102 1.70205
H 4.59148 4.72016 1.91681
""")

# Convert to bohr first. This fixes unit issues that Psi4 seems to have.
becp.set_units(psi4.core.Bohr)
ideal_bebe = becp.xyz(0).distance(becp.xyz(1))
ideal_bec = min(becp.xyz(0).distance(becp.xyz(2)),
                becp.xyz(1).distance(becp.xyz(2)))
# Convert back.
becp.set_units(psi4.core.Angstrom)

methods = ["hf", "mp2", "b3lyp", "b97-1", "pw6b95", "cisd", "ccsd", "dsd-b3lyp-d3bj"]
basis_sets = ["cc-pVDZ", "aug-cc-pVDZ", "pcsseg-3", "aug-pcsseg-3", "aug-pcsseg-4", "cc-pVTZ", "def2-tzvp", "sad-fit"]

basis = basis_sets[(int(os.environ["SGE_TASK_ID"]) - 1) % len(basis_sets)]
method = methods[(int(os.environ["SGE_TASK_ID"]) - 1) // len(basis_sets)]
# First test, energies.
start_time = time.time()
en = energy(method + "/" + basis)
ideal_en = -416.31749560

# Second test, optimized structure.
try :
    optimize(method + "/" + basis)
except psi4.driver.p4util.OptimizationConvergenceError as e :
    task_id = os.environ["SGE_TASK_ID"]
    os.rename("in/be_bond_compare.out", f"out/be_bond_compare-{task_id}.out")
    raise e

end_time = time.time()

# Find the bond lengths. Set to bohr to fix units.
becp.set_units(psi4.core.Bohr)
bebe = becp.xyz(0).distance(becp.xyz(1))
bec = min(becp.xyz(0).distance(becp.xyz(2)),
          becp.xyz(1).distance(becp.xyz(2)))

dat_file = f"out/methods-{job_id}.dat"
txt_file = f"out/methods-{job_id}.txt"
dat_lock = f"out/lock.methods-{job_id}.dat"
txt_lock = f"out/lock.methods-{job_id}.txt"

# Report these in a file, along with their differences.
while os.path.isfile(dat_lock) :
    time.sleep(0.3)

# Obtain a lock and write lines to file.
with open(dat_lock, "w+") as _ :
    with open(dat_file, "ba+") as fp :
        fp.write(pickle.dumps([en, bebe, bec,
                               en - ideal_en, bebe - ideal_bebe,
                               bec - ideal_bec, end_time - start_time, method, basis]))
        fp.write(b'\n')
# Release the lock.        
os.remove(dat_lock)
        

# Make the human readable output, since I seem to have forgotten.
while os.path.isfile(txt_lock) :
    time.sleep(0.3)

with open(txt_lock, "w+") as _ :
    with open(txt_file, "a+") as fp :
        print(f"Method: {method}, Basis: {basis}, Energy: {en}, Be-Be Distance: {bebe}, Be-C Distance: {bec}", file = fp)
        print(f"Energy Error: {en - ideal_en}, Be-Be Error: {bebe - ideal_bebe}, Be-C Error: {bec - ideal_bec}, Runtime: {end_time - start_time}", file = fp)

os.remove(txt_lock)
        
--------------------------------------------------------------------------

Scratch directory: /tmp/931330.41.gen4.q/
   => Libint2 <=

    Primary   basis highest AM E, G, H:  5, 4, 3
    Auxiliary basis highest AM E, G, H:  6, 5, 4
    Onebody   basis highest AM E, G, H:  6, 5, 4
    Solid Harmonics ordering:            gaussian

*** tstart() called on n023
*** at Mon Aug 28 11:25:14 2023

   => Loading Basis Set <=

    Name: CC-PVDZ
    Role: ORBITAL
    Keyword: BASIS
    atoms 1-2                                 entry BE         line    75 file /opt/psi/4/1.9a/share/psi4/basis/cc-pvdz.gbs 
    atoms 3, 5, 7, 9, 11, 13, 15, 17, 19, 21  entry C          line   138 file /opt/psi/4/1.9a/share/psi4/basis/cc-pvdz.gbs 
    atoms 4, 6, 8, 10, 12, 14, 16, 18, 20, 22 entry H          line    22 file /opt/psi/4/1.9a/share/psi4/basis/cc-pvdz.gbs 


         ---------------------------------------------------------
                                   SCF
               by Justin Turney, Rob Parrish, Andy Simmonett
                          and Daniel G. A. Smith
                              RHF Reference
                        4 Threads,    500 MiB Core
         ---------------------------------------------------------

  ==> Geometry <==

    Molecular point group: c1
    Full point group: C1

    Geometry (in Angstrom), charge = 0, multiplicity = 1:

       Center              X                  Y                   Z               Mass       
    ------------   -----------------  -----------------  -----------------  -----------------
         BE          -0.908789883082     0.010202885521    -0.469526005401     9.012183065000
         BE           0.909370116918    -0.013457114479     0.468413994599     9.012183065000
         C            1.739340116918     0.113502885521     2.243363994599    12.000000000000
         H            1.188990116918     0.241692885521     3.164763994599     1.007825032230
         C            2.190210116918     1.153362885521     1.392863994599    12.000000000000
         H            2.043280116918     2.212132885521     1.553163994599     1.007825032230
         C            2.774770116918     0.559292885521     0.246853994599    12.000000000000
         H            3.151020116918     1.086382885521    -0.618536005401     1.007825032230
         C            2.685190116918    -0.847747114479     0.389113994599    12.000000000000
         H            2.981410116918    -1.579737114479    -0.348946005401     1.007825032230
         C            2.045260116918    -1.123277114479     1.623033994599    12.000000000000
         H            1.768800116918    -2.101867114479     1.989383994599     1.007825032230
         C           -1.796539883082     0.607982885521    -2.115766005401    12.000000000000
         H           -1.297469883082     1.124922885521    -2.923226005401     1.007825032230
         C           -1.894569883082    -0.797427114479    -1.963286005401    12.000000000000
         H           -1.483239883082    -1.538237114479    -2.634316005401     1.007825032230
         C           -2.534919883082    -1.060117114479    -0.726786005401    12.000000000000
         H           -2.696479883082    -2.036057114479    -0.291226005401     1.007825032230
         C           -2.832759883082     0.182912885521    -0.115086005401    12.000000000000
         H           -3.260819883082     0.319412885521     0.867973994599     1.007825032230
         C           -2.376369883082     1.213822885521    -0.973496005401    12.000000000000
         H           -2.396049883082     2.272962885521    -0.758736005401     1.007825032230

  Running in c1 symmetry.

  Rotational constants: A =      0.07428  B =      0.01703  C =      0.01703 [cm^-1]
  Rotational constants: A =   2226.91551  B =    510.41593  C =    510.41532 [MHz]
  Nuclear repulsion =  530.991458653511927

  Charge       = 0
  Multiplicity = 1
  Electrons    = 78
  Nalpha       = 39
  Nbeta        = 39

  ==> Algorithm <==

  SCF Algorithm Type is PK.
  DIIS enabled.
  MOM disabled.
  Fractional occupation disabled.
  Guess Type is SAD.
  Energy threshold   = 1.00e-08
  Density threshold  = 1.00e-08
  Integral threshold = 1.00e-12

  ==> Primary Basis <==

  Basis Set: CC-PVDZ
    Blend: CC-PVDZ
    Number of shells: 102
    Number of basis functions: 218
    Number of Cartesian functions: 230
    Spherical Harmonics?: true
    Max angular momentum: 2

  ==> Integral Setup <==

  Using integral reordering PK algorithm.
  Sizing the integral batches needed.
  Building batch lookup table.
   Calculation information:
      Number of atoms:                  22
      Number of AO shells:             102
      Number of primitives:            320
      Number of atomic orbitals:       230
      Number of basis functions:       218

      Integral cutoff                 1.00e-12
      Number of threads:                 4

	Batch   1 pq = [       0,    9405] index = [             0,44231715] size =     44231715
	Batch   2 pq = [    9405,   13301] index = [      44231715,88464951] size =     44233236
	Batch   3 pq = [   13301,   16290] index = [      88464951,132690195] size =     44225244
	Batch   4 pq = [   16290,   18810] index = [     132690195,176917455] size =     44227260
	Batch   5 pq = [   18810,   21030] index = [     176917455,221140965] size =     44223510
	Batch   6 pq = [   21030,   23037] index = [     221140965,265363203] size =     44222238
	Batch   7 pq = [   23037,   23871] index = [     265363203,284924256] size =     19561053
  Task number: 104
  Buffer size: 2764800
  Buffer per thread: 2
  We computed 25898290 shell quartets total.
  Whereas there are 13799631 unique shell quartets.
    87.67 percent of shell quartets recomputed by reordering.

  ==> DiskJK: Disk-Based J/K Matrices <==

    J tasked:                  Yes
    K tasked:                  Yes
    wK tasked:                  No
    Memory [MiB]:              375
    Schwarz Cutoff:          1E-12

    OpenMP threads:              4

  Minimum eigenvalue in the overlap matrix is 4.7957601107E-04.
  Reciprocal condition number of the overlap matrix is 6.0641028956E-05.
    Using symmetric orthogonalization.

  ==> Pre-Iterations <==

  SCF Guess: Superposition of Atomic Densities via on-the-fly atomic UHF (no occupation information).

   -------------------------
    Irrep   Nso     Nmo    
   -------------------------
     A        218     218 
   -------------------------
    Total     218     218
   -------------------------

  ==> Iterations <==

                        Total Energy        Delta E     RMS |[F,P]|

   @RHF iter SAD:  -414.16051508578596   -4.14161e+02   0.00000e+00 
   @RHF iter   1:  -413.57329579711450    5.87219e-01   2.85659e-03 ADIIS/DIIS
   @RHF iter   2:  -413.76757105067043   -1.94275e-01   1.44369e-03 ADIIS/DIIS
   @RHF iter   3:  -413.81800918058900   -5.04381e-02   2.28236e-04 ADIIS/DIIS
   @RHF iter   4:  -413.82016581662310   -2.15664e-03   3.41620e-05 DIIS
   @RHF iter   5:  -413.82020527342172   -3.94568e-05   1.17907e-05 DIIS
   @RHF iter   6:  -413.82021053155586   -5.25813e-06   1.63874e-06 DIIS
   @RHF iter   7:  -413.82021069824884   -1.66693e-07   2.61551e-07 DIIS
   @RHF iter   8:  -413.82021070343262   -5.18378e-09   5.88048e-08 DIIS
   @RHF iter   9:  -413.82021070367591   -2.43290e-10   2.16699e-08 DIIS
   @RHF iter  10:  -413.82021070369558   -1.96678e-11   7.67617e-09 DIIS
  Energy and wave function converged.


  ==> Post-Iterations <==

    Orbital Energies [Eh]
    ---------------------

    Doubly Occupied:                                                      

       1A    -11.238983     2A    -11.238982     3A    -11.238293  
       4A    -11.238293     5A    -11.238289     6A    -11.238288  
       7A    -11.237081     8A    -11.237078     9A    -11.237076  
      10A    -11.237075    11A     -4.613007    12A     -4.612477  
      13A     -1.190697    14A     -1.190573    15A     -0.967099  
      16A     -0.967096    17A     -0.966937    18A     -0.966933  
      19A     -0.740622    20A     -0.740620    21A     -0.740506  
      22A     -0.740504    23A     -0.712616    24A     -0.712329  
      25A     -0.567022    26A     -0.557558    27A     -0.554993  
      28A     -0.554993    29A     -0.554930    30A     -0.554930  
      31A     -0.526306    32A     -0.526300    33A     -0.526240  
      34A     -0.526233    35A     -0.340999    36A     -0.340996  
      37A     -0.329477    38A     -0.329473    39A     -0.277888  

    Virtual:                                                              

      40A      0.149063    41A      0.149064    42A      0.185636  
      43A      0.198503    44A      0.202016    45A      0.202017  
      46A      0.208609    47A      0.208636    48A      0.228132  
      49A      0.235078    50A      0.235080    51A      0.247406  
      52A      0.247451    53A      0.254468    54A      0.254470  
      55A      0.256728    56A      0.256771    57A      0.297979  
      58A      0.342108    59A      0.363329    60A      0.365085  
      61A      0.365091    62A      0.377347    63A      0.377355  
      64A      0.404483    65A      0.404490    66A      0.439518  
      67A      0.439520    68A      0.454857    69A      0.454861  
      70A      0.458492    71A      0.458507    72A      0.538049  
      73A      0.542243    74A      0.542247    75A      0.559747  
      76A      0.622572    77A      0.623466    78A      0.647934  
      79A      0.647953    80A      0.650643    81A      0.650643  
      82A      0.658437    83A      0.664261    84A      0.688651  
      85A      0.688668    86A      0.700763    87A      0.700766  
      88A      0.721469    89A      0.796536    90A      0.812653  
      91A      0.812705    92A      0.825611    93A      0.825663  
      94A      0.827901    95A      0.827904    96A      0.828366  
      97A      0.828369    98A      0.829274    99A      0.829343  
     100A      0.893220   101A      0.893229   102A      0.895882  
     103A      0.895889   104A      0.896660   105A      0.932962  
     106A      0.958778   107A      0.958787   108A      0.986290  
     109A      0.986300   110A      1.035242   111A      1.036532  
     112A      1.036559   113A      1.036620   114A      1.060024  
     115A      1.060031   116A      1.101356   117A      1.104789  
     118A      1.157779   119A      1.170929   120A      1.170938  
     121A      1.198425   122A      1.198436   123A      1.225659  
     124A      1.225677   125A      1.235431   126A      1.235447  
     127A      1.240424   128A      1.240495   129A      1.259496  
     130A      1.259503   131A      1.300143   132A      1.300152  
     133A      1.339223   134A      1.339312   135A      1.403747  
     136A      1.466988   137A      1.467002   138A      1.483094  
     139A      1.543099   140A      1.559720   141A      1.559734  
     142A      1.593538   143A      1.593598   144A      1.621888  
     145A      1.666634   146A      1.666641   147A      1.715018  
     148A      1.746826   149A      1.746854   150A      1.750897  
     151A      1.750909   152A      1.770550   153A      1.778440  
     154A      1.778448   155A      1.890391   156A      1.890397  
     157A      1.902898   158A      1.902918   159A      1.903783  
     160A      1.903803   161A      1.957542   162A      1.957774  
     163A      1.957799   164A      1.957838   165A      1.957848  
     166A      1.960436   167A      1.960445   168A      2.006237  
     169A      2.035088   170A      2.035096   171A      2.036887  
     172A      2.036895   173A      2.064511   174A      2.064515  
     175A      2.119857   176A      2.122468   177A      2.143608  
     178A      2.163001   179A      2.163014   180A      2.195339  
     181A      2.195366   182A      2.197922   183A      2.197926  
     184A      2.250653   185A      2.263617   186A      2.263622  
     187A      2.279266   188A      2.279271   189A      2.327332  
     190A      2.327493   191A      2.333725   192A      2.333776  
     193A      2.355766   194A      2.355778   195A      2.454263  
     196A      2.454274   197A      2.458262   198A      2.458271  
     199A      2.708974   200A      2.708989   201A      2.720074  
     202A      2.720107   203A      2.732060   204A      2.736234  
     205A      2.875053   206A      2.875075   207A      2.896422  
     208A      2.896443   209A      2.944169   210A      2.944200  
     211A      2.952984   212A      2.953019   213A      2.968965  
     214A      2.969226   215A      3.622610   216A      3.622633  
     217A      3.630979   218A      3.631006  

    Final Occupation by Irrep:
              A 
    DOCC [    39 ]
    NA   [    39 ]
    NB   [    39 ]

  @RHF Final Energy:  -413.82021070369558

   => Energetics <=

    Nuclear Repulsion Energy =            530.9914586535119270
    One-Electron Energy =               -1611.0037580858102046
    Two-Electron Energy =                 666.1920887286026982
    Total Energy =                       -413.8202107036955795

Computation Completed


Properties will be evaluated at   0.000000,   0.000000,   0.000000 [a0]

Properties computed using the SCF density matrix


 Multipole Moments:

 ------------------------------------------------------------------------------------
     Multipole            Electronic (a.u.)      Nuclear  (a.u.)        Total (a.u.)
 ------------------------------------------------------------------------------------

 L = 1.  Multiply by 2.5417464519 to convert [e a0] to [Debye]
 Dipole X            :          0.0009346           -0.0010788           -0.0001443
 Dipole Y            :         -0.0040136            0.0046205            0.0006069
 Dipole Z            :         -0.0011741            0.0013447            0.0001706
 Magnitude           :                                                    0.0006467

 ------------------------------------------------------------------------------------

*** tstop() called on n023 at Mon Aug 28 11:26:24 2023
Module time:
	user time   =     220.19 seconds =       3.67 minutes
	system time =      12.12 seconds =       0.20 minutes
	total time  =         70 seconds =       1.17 minutes
Total time:
	user time   =     220.19 seconds =       3.67 minutes
	system time =      12.12 seconds =       0.20 minutes
	total time  =         70 seconds =       1.17 minutes
 MINTS: Wrapper to libmints.
   by Justin Turney

   Calculation information:
      Number of threads:                 4
      Number of atoms:                  22
      Number of AO shells:             102
      Number of SO shells:             102
      Number of primitives:            320
      Number of atomic orbitals:       230
      Number of basis functions:       218

      Number of irreps:                  1
      Integral cutoff                 1.00e-12
      Number of functions per irrep: [ 218 ]

 OEINTS: Overlap, kinetic, potential, dipole, and quadrupole integrals
         stored in file 35.

      Computing two-electron integrals...done
      Computed 178340903 non-zero two-electron integrals.
        Stored in file 33.


*** tstart() called on n023
*** at Mon Aug 28 11:28:15 2023

        ==> Transform all two-electron integrals <==

	Presorting SO-basis two-electron integrals.
	Sorting File: SO Ints (nn|nn) nbuckets = 9
	Constructing frozen core operators
	Starting first half-transformation.
	Sorting half-transformed integrals.
	First half integral transformation complete.
	Starting second half-transformation.
	Two-electron integral transformation complete.

*** tstop() called on n023 at Mon Aug 28 11:30:27 2023
Module time:
	user time   =     322.47 seconds =       5.37 minutes
	system time =      31.94 seconds =       0.53 minutes
	total time  =        132 seconds =       2.20 minutes
Total time:
	user time   =     651.59 seconds =      10.86 minutes
	system time =      45.73 seconds =       0.76 minutes
	total time  =        313 seconds =       5.22 minutes

*** tstart() called on n023
*** at Mon Aug 28 11:30:27 2023


        **********************************************************
        *                                                        *
        *                   CCSD Integral Sort                   *
        *                                                        *
        **********************************************************


        CC integral sort will use                    500.00 mb
       (for most efficient sort, increase memory by 11380.44 mb)

        Number of (ab|cd) temporary files:               24
        Number of (ab|ci) temporary files:               33
        Starting temporary file number:                 270

        Initial sort........                                                                                                                                                                                                                                                                                                                                                                                                                                                                                                                                                                                                                                                                                                                                                                                                                                                                                                                                                                                                                                                                                                                                                                                                                                                                                                                                                                                                                                                                                                                                                                                                                                                                                                                                                                                                                                                                                                                                                                                                                                                                                                                                                                                                                                                                                                                                                                                                                                                                                                                                                                                                                                                                                                                                                                                                                                                                                                                                                                                                                                                                                                                                                                                                                                                                                                                                                                                                                                                                                                                                                                                                                                                                                                                                                                                                                                                                                                                                                                                                                                                                                                                                                                                                                                                                                                                                                                                                                                                                                                                                                                                                                                                                                                                                                                                                                                                                                                                                                                                                                                                                                                                                                                                                                                                                                                                                                                                                                                                                                                                                                                                                                                                                                                                                                                                                                                                                                                                                                                                                                                                                                                                                                                                                                                                                                                                                                                                                                                                                                                                                                                                                                                                                                                                                                                                                                                                                                                                                                                                                                                                                                                                                                                                                                                                                                                                                                                                                                                                                                                                                                                                                                                                                                                                                                                                                                                                                                                                                                                                                                                                                                                                                                                                                                                                                                                                                                                                                                                                                                                                                                                                                                                                                                                                                                                                                                                                                                                                                                                                                                                                                                                                                                                                                                                                                                                                                                                                                                                                                                                                                                                                                                                                                                                                                                                                                                                                                                                                                                                                                                                                                                                                                                                                                                                                                                                                                                                                                                                                                                                                                                                                                                                                                                                                                                                                                                                                                                                                                                                                                                                                                                                                                                                                                                                                                                                                                                                                                                                                                                                                                                                                                                                                                                                                                                                                                                                                                                                                                                                                                                                                                                                                                                                                                                                                                                                                                                                                                                                                                                                                                                                                                                                                                                                                                                                                                                                                                                                                                                                                                                                                                                                                                                                                                                                                                                                                                                                                                                                                                                                                                                                                                                                                                                                                                                                                                                                                                                                                                                                                                                                                                                                                                                                                                                                                                                                                                                                                                                                                                                                                                                                                                                                                                                                                                                                                                                                                                                                                                                                                                                                                                                                                                                                                                                                                                                                                                                                                                                                                                                                                                                                @DF-RKS iter SAD:  -391.00428258045849   -3.91004e+02   0.00000e+00 
   @DF-RKS iter   1:  -393.06789658419859   -2.06361e+00   8.32998e-04 ADIIS/DIIS
   @DF-RKS iter   2:  -393.08442937880147   -1.65328e-02   8.19389e-04 ADIIS/DIIS
   @DF-RKS iter   3:  -393.20228750729825   -1.17858e-01   6.98404e-05 DIIS
   @DF-RKS iter   4:  -393.20290338228551   -6.15875e-04   1.72536e-05 DIIS
   @DF-RKS iter   5:  -393.20294415049432   -4.07682e-05   9.35711e-06 DIIS
   @DF-RKS iter   6:  -393.20296076963507   -1.66191e-05   6.29427e-07 DIIS
   @DF-RKS iter   7:  -393.20296084683480   -7.71997e-08   1.17622e-07 DIIS
   @DF-RKS iter   8:  -393.20296084932738   -2.49258e-09   6.12378e-08 DIIS
   @DF-RKS iter   9:  -393.20296084995846   -6.31076e-10   1.90064e-08 DIIS
   @DF-RKS iter  10:  -393.20296085002974   -7.12816e-11   1.73249e-09 DIIS
  Energy and wave function converged.


  ==> Post-Iterations <==

   Electrons on quadrature grid:
      Ntotal   =   78.0000199675 ; deviation = 1.997e-05 

    Orbital Energies [Eh]
    ---------------------

    Doubly Occupied:                                                      

       1A     -9.585067     2A     -9.585063     3A     -9.584278  
       4A     -9.584275     5A     -9.574472     6A     -9.574469  
       7A     -9.571816     8A     -9.571812     9A     -9.557285  
      10A     -9.554980    11A     -3.868927    12A     -3.851577  
      13A     -0.854978    14A     -0.854940    15A     -0.673886  
      16A     -0.673884    17A     -0.673610    18A     -0.673608  
      19A     -0.543238    20A     -0.542993    21A     -0.530432  
      22A     -0.530431    23A     -0.530376    24A     -0.530375  
      25A     -0.428528    26A     -0.424348    27A     -0.412603  
      28A     -0.412601    29A     -0.412490    30A     -0.412489  
      31A     -0.394150    32A     -0.394147    33A     -0.394140  
      34A     -0.394136    35A     -0.267484    36A     -0.267483  
      37A     -0.259714    38A     -0.259712    39A     -0.183866  

    Virtual:                                                              

      40A      0.068603    41A      0.068612    42A      0.070172  
      43A      0.070193    44A      0.074117    45A      0.074119  
      46A      0.139990    47A      0.144253    48A      0.194291  
      49A      0.198191    50A      0.223605    51A      0.223607  
      52A      0.227654    53A      0.227657    54A      0.241039  
      55A      0.241042    56A      0.258429    57A      0.258435  
      58A      0.258746    59A      0.258750    60A      0.275594  
      61A      0.275604    62A      0.276964    63A      0.278315  
      64A      0.300280    65A      0.300287    66A      0.355271  
      67A      0.355281    68A      0.374002    69A      0.374009  
      70A      0.429195    71A      0.445665    72A      0.445727  
      73A      0.445737    74A      0.469725    75A      0.469740  
      76A      0.473978    77A      0.473988    78A      0.483620  
      79A      0.483624    80A      0.488292    81A      0.488321  
      82A      0.499862    83A      0.499865    84A      0.517667  
      85A      0.522659    86A      0.529869    87A      0.529871  
      88A      0.535969    89A      0.566579    90A      0.583341  
      91A      0.583355    92A      0.617942    93A      0.618099  
      94A      0.678021    95A      0.696627    96A      0.696630  
      97A      0.752180    98A      0.752197    99A      0.754364  
     100A      0.786131   101A      0.786137   102A      0.799846  
     103A      0.799856   104A      0.801988   105A      0.802118  
     106A      0.852167   107A      0.852183   108A      0.854151  
     109A      0.854156   110A      0.866203   111A      0.866206  
     112A      0.897044   113A      0.930286   114A      0.930302  
     115A      0.933416   116A      0.933427   117A      0.935267  
     118A      0.935282   119A      0.936840   120A      0.944412  
     121A      0.968061   122A      0.968070   123A      0.986560  
     124A      0.986566   125A      1.013276   126A      1.013292  
     127A      1.023659   128A      1.081924   129A      1.081978  
     130A      1.085367   131A      1.085381   132A      1.106365  
     133A      1.110877   134A      1.129478   135A      1.129498  
     136A      1.132896   137A      1.132903   138A      1.163597  
     139A      1.163599   140A      1.177040   141A      1.177042  
     142A      1.199548   143A      1.199559   144A      1.298168  
     145A      1.298443   146A      1.324423   147A      1.343461  
     148A      1.343468   149A      1.348777   150A      1.366864  
     151A      1.366868   152A      1.467807   153A      1.467830  
     154A      1.494099   155A      1.494913   156A      1.495002  
     157A      1.504497   158A      1.504521   159A      1.520091  
     160A      1.520101   161A      1.547172   162A      1.547184  
     163A      1.556405   164A      1.556415   165A      1.565620  
     166A      1.609881   167A      1.609883   168A      1.655742  
     169A      1.657219   170A      1.657231   171A      1.658475  
     172A      1.658520   173A      1.731223   174A      1.731231  
     175A      1.750430   176A      1.836288   177A      1.836325  
     178A      1.838610   179A      1.860786   180A      1.860793  
     181A      1.885921   182A      1.924909   183A      1.924928  
     184A      1.943647   185A      1.943666   186A      1.956979  
     187A      1.956986   188A      1.971883   189A      1.971927  
     190A      1.982300   191A      1.988648   192A      1.988698  
     193A      2.008915   194A      2.055242   195A      2.057734  
     196A      2.057766   197A      2.070848   198A      2.070857  
     199A      2.115345   200A      2.115356   201A      2.139749  
     202A      2.139755   203A      2.149165   204A      2.274293  
     205A      2.274332   206A      2.306358   207A      2.306372  
     208A      2.329017   209A      2.329107   210A      2.342774  
     211A      2.342779   212A      2.389121   213A      2.389122  
     214A      2.397619   215A      2.434104   216A      2.434155  
     217A      2.435606   218A      2.435637   219A      2.465382  
     220A      2.465387   221A      2.480820   222A      2.483678  
     223A      2.483695   224A      2.555928   225A      2.568461  
     226A      2.573808   227A      2.573819   228A      2.649580  
     229A      2.649661   230A      2.674967   231A      2.675057  
     232A      2.684495   233A      2.732556   234A      2.732566  
     235A      2.744065   236A      2.744085   237A      2.794361  
     238A      2.794462   239A      2.811259   240A      2.814471  
     241A      2.814484   242A      2.820172   243A      2.820192  
     244A      2.824979   245A      2.872246   246A      2.872256  
     247A      2.881050   248A      2.881113   249A      2.889789  
     250A      2.889810   251A      2.913147   252A      2.913149  
     253A      2.932505   254A      2.932521   255A      2.955337  
     256A      2.983743   257A      2.983765   258A      2.987376  
     259A      2.987397   260A      3.015094   261A      3.023687  
     262A      3.023733   263A      3.044204   264A      3.044220  
     265A      3.047143   266A      3.047230   267A      3.048302  
     268A      3.055615   269A      3.055627   270A      3.100626  
     271A      3.100648   272A      3.194960   273A      3.195115  
     274A      3.214062   275A      3.214081   276A      3.217411  
     277A      3.217503   278A      3.241792   279A      3.241812  
     280A      3.305455   281A      3.305463   282A      3.342091  
     283A      3.342104   284A      3.371113   285A      3.371274  
     286A      3.390597   287A      3.407001   288A      3.407121  
     289A      3.469289   290A      3.479161   291A      3.479174  
     292A      3.500210   293A      3.500213   294A      3.613335  
     295A      3.650879   296A      3.700975   297A      3.701038  
     298A      3.703073   299A      3.703095   300A      3.750596  
     301A      3.750612   302A      3.815397   303A      3.819620  
     304A      3.866918   305A      3.866948   306A      3.921089  
     307A      3.921123   308A      3.921302   309A      3.921358  
     310A      3.929499   311A      3.929530   312A      3.990624  
     313A      3.990634   314A      4.010127   315A      4.010146  
     316A      4.061636   317A      4.066026   318A      4.117166  
     319A      4.117292   320A      4.119172   321A      4.119302  
     322A      4.140834   323A      4.140849   324A      4.147833  
     325A      4.147977   326A      4.168669   327A      4.168800  
     328A      4.294838   329A      4.294856   330A      4.300863  
     331A      4.300992   332A      4.307719   333A      4.307923  
     334A      4.340325   335A      4.340341   336A      4.481397  
     337A      4.481414   338A      4.489470   339A      4.514033  
     340A      4.514052   341A      4.516647   342A      4.678473  
     343A      4.711130   344A      4.711199   345A      4.711277  
     346A      4.723382   347A      4.723570   348A      4.767975  
     349A      4.767980   350A      4.829626   351A      4.862169  
     352A      4.862178   353A      4.955479   354A      4.955491  
     355A      4.983915   356A      5.017603   357A      5.017615  
     358A      5.044863   359A      5.044885   360A      5.066115  
     361A      5.066195   362A      5.101990   363A      5.102016  
     364A      5.102481   365A      5.102499   366A      5.109527  
     367A      5.208093   368A      5.246052   369A      5.247891  
     370A      5.247914   371A      5.253568   372A      5.253578  
     373A      5.360199   374A      5.410050   375A      5.410069  
     376A      5.429034   377A      5.429148   378A      5.442591  
     379A      5.443939   380A      5.443949   381A      5.445201  
     382A      5.445323   383A      5.445532   384A      5.445542  
     385A      5.527009   386A      5.527041   387A      5.640134  
     388A      5.640149   389A      5.642542   390A      5.642596  
     391A      5.668750   392A      5.668803   393A      5.685291  
     394A      5.685341   395A      5.772184   396A      5.772308  
     397A      5.784231   398A      5.784338   399A      5.836443  
     400A      5.836450   401A      5.842727   402A      5.842730  
     403A      5.878476   404A      5.878504   405A      5.942388  
     406A      5.942424   407A      5.949383   408A      5.949415  
     409A      5.973667   410A      5.990971   411A      5.991003  
     412A      6.009654   413A      6.028449   414A      6.028473  
     415A      6.117423   416A      6.117475   417A      6.210571  
     418A      6.280782   419A      6.426175   420A      6.426190  
     421A      6.566970   422A      6.566988   423A      6.567525  
     424A      6.582869   425A      6.582886   426A      6.595267  
     427A      6.701705   428A      6.701792   429A      6.725485  
     430A      6.725624   431A      6.737399   432A      6.737432  
     433A      6.755616   434A      6.755645   435A      6.805217  
     436A      6.805233   437A      6.815551   438A      6.815617  
     439A      6.872650   440A      6.872675   441A      7.016151  
     442A      7.016156   443A      7.016698   444A      7.016704  
     445A      7.073634   446A      7.093056   447A      7.099588  
     448A      7.099602   449A      7.102053   450A      7.102066  
     451A      7.196700   452A      7.196707   453A      7.207715  
     454A      7.207726   455A      7.236945   456A      7.236956  
     457A      7.274569   458A      7.274588   459A      7.276248  
     460A      7.276269   461A      7.352604   462A      7.352645  
     463A      7.373108   464A      7.373152   465A      7.869489  
     466A      7.869490   467A      7.883503   468A      7.883503  
     469A      7.913552   470A      7.934091   471A      7.934121  
     472A      7.938635   473A      7.938664   474A      7.974352  
     475A      7.974427   476A      7.978294   477A      7.979159  
     478A      7.979241   479A      8.091279   480A      8.091297  
     481A      8.091461   482A      8.091481   483A      8.286510  
     484A      8.286539   485A      8.288301   486A      8.288328  
     487A      8.633748   488A      8.633761   489A      9.289010  
     490A      9.289015   491A      9.318141   492A      9.318147  
     493A      9.329886   494A      9.330885   495A      9.354326  
     496A      9.354347   497A      9.382167   498A      9.382260  
     499A      9.606531   500A      9.608533   501A      9.608556  
     502A      9.610964   503A      9.610987   504A      9.623810  
     505A      9.623824   506A      9.625653   507A      9.636794  
     508A      9.636808   509A      9.863634   510A      9.863650  
     511A      9.884523   512A      9.899740   513A      9.899857  
     514A      9.900135   515A      9.908308   516A      9.908336  
     517A      9.980810   518A      9.980833   519A     10.080256  
     520A     10.080282   521A     10.081970   522A     10.081996  
     523A     10.131549   524A     10.131587   525A     10.131910  
     526A     10.131933   527A     10.133221   528A     10.133235  
     529A     10.338634   530A     10.357157   531A     10.529581  
     532A     10.529596   533A     10.542024   534A     10.542037  
     535A     10.881096   536A     10.881156   537A     10.889866  
     538A     10.889930   539A     11.086206   540A     11.086223  
     541A     11.116222   542A     11.116239   543A     11.232874  
     544A     11.232893   545A     11.233926   546A     11.233951  
     547A     11.498771   548A     11.498787   549A     18.780310  
     550A     19.508587   551A     21.555542   552A     21.607786  
     553A     21.609699   554A     21.609771   555A     21.617608  
     556A     21.617615   557A     21.627312   558A     21.627440  
     559A     21.730736   560A     21.730750   561A     21.769594  
     562A     21.769670   563A     21.794402   564A     21.794438  
     565A     21.926077   566A     21.964055   567A     22.175111  
     568A     22.175129   569A     22.223980   570A     22.223997  
     571A     22.513637   572A     22.513656   573A     22.517750  
     574A     22.517767   575A     22.756708   576A     22.756757  
     577A     22.817235   578A     22.817283   579A     23.006405  
     580A     23.006421   581A     38.062050   582A     38.121283  
     583A     38.576113   584A     38.576134   585A     38.669640  
     586A     38.669665   587A     38.887301   588A     38.887414  
     589A     38.910591   590A     38.910768  

    Final Occupation by Irrep:
              A 
    DOCC [    39 ]
    NA   [    39 ]
    NB   [    39 ]

  @DF-RKS Final Energy:  -393.20296085002974

   => Energetics <=

    Nuclear Repulsion Energy =            530.9914586535119270
    One-Electron Energy =               -1583.0082588648740511
    Two-Electron Energy =                 703.2869374031043890
    DFT Exchange-Correlation Energy =     -44.4730980417719763
    Empirical Dispersion Energy =           0.0000000000000000
    VV10 Nonlocal Energy =                  0.0000000000000000
    Total Energy =                       -393.2029608500297400

Computation Completed


Properties will be evaluated at   0.000000,   0.000000,   0.000000 [a0]

Properties computed using the SCF density matrix


 Multipole Moments:

 ------------------------------------------------------------------------------------
     Multipole            Electronic (a.u.)      Nuclear  (a.u.)        Total (a.u.)
 ------------------------------------------------------------------------------------

 L = 1.  Multiply by 2.5417464519 to convert [e a0] to [Debye]
 Dipole X            :          0.0008882           -0.0010788           -0.0001906
 Dipole Y            :         -0.0032920            0.0046205            0.0013285
 Dipole Z            :         -0.0010290            0.0013447            0.0003157
 Magnitude           :                                                    0.0013788

 ------------------------------------------------------------------------------------

*** tstop() called on n067 at Mon Aug 28 11:26:26 2023
Module time:
	user time   =     407.72 seconds =       6.80 minutes
	system time =       3.24 seconds =       0.05 minutes
	total time  =        112 seconds =       1.87 minutes
Total time:
	user time   =     716.94 seconds =      11.95 minutes
	system time =       5.90 seconds =       0.10 minutes
	total time  =        193 seconds =       3.22 minutes

*** tstart() called on n067
*** at Mon Aug 28 11:26:26 2023


         ------------------------------------------------------------
                                   SCF GRAD                          
                          Rob Parrish, Justin Turney,                
                       Andy Simmonett, and Alex Sokolov              
         ------------------------------------------------------------

  ==> Geometry <==

    Molecular point group: c1
    Full point group: C1

    Geometry (in Angstrom), charge = 0, multiplicity = 1:

       Center              X                  Y                   Z               Mass       
    ------------   -----------------  -----------------  -----------------  -----------------
         BE          -0.908789883082     0.010202885521    -0.469526005401     9.012183065000
         BE           0.909370116918    -0.013457114479     0.468413994599     9.012183065000
         C            1.739340116918     0.113502885521     2.243363994599    12.000000000000
         H            1.188990116918     0.241692885521     3.164763994599     1.007825032230
         C            2.190210116918     1.153362885521     1.392863994599    12.000000000000
         H            2.043280116918     2.212132885521     1.553163994599     1.007825032230
         C            2.774770116918     0.559292885521     0.246853994599    12.000000000000
         H            3.151020116918     1.086382885521    -0.618536005401     1.007825032230
         C            2.685190116918    -0.847747114479     0.389113994599    12.000000000000
         H            2.981410116918    -1.579737114479    -0.348946005401     1.007825032230
         C            2.045260116918    -1.123277114479     1.623033994599    12.000000000000
         H            1.768800116918    -2.101867114479     1.989383994599     1.007825032230
         C           -1.796539883082     0.607982885521    -2.115766005401    12.000000000000
         H           -1.297469883082     1.124922885521    -2.923226005401     1.007825032230
         C           -1.894569883082    -0.797427114479    -1.963286005401    12.000000000000
         H           -1.483239883082    -1.538237114479    -2.634316005401     1.007825032230
         C           -2.534919883082    -1.060117114479    -0.726786005401    12.000000000000
         H           -2.696479883082    -2.036057114479    -0.291226005401     1.007825032230
         C           -2.832759883082     0.182912885521    -0.115086005401    12.000000000000
         H           -3.260819883082     0.319412885521     0.867973994599     1.007825032230
         C           -2.376369883082     1.213822885521    -0.973496005401    12.000000000000
         H           -2.396049883082     2.272962885521    -0.758736005401     1.007825032230

  Nuclear repulsion =  530.991458653511927

  ==> Basis Set <==

  Basis Set: SAD-FIT
    Blend: SAD-FIT
    Number of shells: 218
    Number of basis functions: 590
    Number of Cartesian functions: 672
    Spherical Harmonics?: true
    Max angular momentum: 3

  ==> DFJKGrad: Density-Fitted SCF Gradients <==

    Gradient:                    1
    J tasked:                  Yes
    K tasked:                  Yes
    wK tasked:                  No
    OpenMP threads:              4
    Integrals threads:           4
    Memory [MiB]:              375
    Schwarz Cutoff:          1E-12
    Fitting Condition:       1E-10

   => Auxiliary Basis Set <=

  Basis Set: (SAD-FIT AUX)
    Blend: DEF2-UNIVERSAL-JKFIT
    Number of shells: 344
    Number of basis functions: 1032
    Number of Cartesian functions: 1210
    Spherical Harmonics?: true
    Max angular momentum: 4

  ==> DFT Potential <==

   => LibXC <=

    Version 6.1.0
    S. Lehtola, C. Steigemann, M. J.T. Oliveira, and M. A.L. Marques.,  SoftwareX 7, 15 (2018) (10.1016/j.softx.2017.11.002)

   => Composite Functional: PW6B95 <= 

    PW6B95 Hybrid Meta-GGA XC Functional

    Y. Zhao and D. Truhlar, J. Phys. Chem. A., 109,5656-5667, 2005


    Deriv               =              1
    GGA                 =           TRUE
    Meta                =           TRUE

    Exchange Hybrid     =           TRUE
    MP2 Hybrid          =          FALSE

   => Exchange Functionals <=

    0.7200   XC_GGA_X_MPW91

   => Exact (HF) Exchange <=

    0.2800               HF 

   => Correlation Functionals <=

    1.0000   XC_MGGA_C_BC95

   => LibXC Density Thresholds  <==

    XC_MGGA_C_BC95:  1.00E-14 
    XC_GGA_X_MPW91:  1.00E-15 

   => Molecular Quadrature <=

    Radial Scheme          =       TREUTLER
    Pruning Scheme         =           NONE
    Nuclear Scheme         =       TREUTLER

    Blocking Scheme        =         OCTREE
    BS radius alpha        =              1
    Pruning alpha          =              1
    Radial Points          =             75
    Spherical Points       =            302
    Total Points           =         456418
    Total Blocks           =           3352
    Max Points             =            256
    Max Functions          =            431
    Weights Tolerance      =       1.00E-15


  -Total Gradient:
     Atom            X                  Y                   Z
    ------   -----------------  -----------------  -----------------
       1        0.066529217585    -0.000971551028     0.034162950704
       2       -0.066481951443     0.000640417250    -0.034251766376
       3       -0.029799102332     0.013723951393     0.116896299708
       4       -0.003731503546     0.000145804750    -0.000895097757
       5        0.014485914429     0.115898322111     0.033403060347
       6       -0.003385635773     0.000935424323    -0.001536470404
       7        0.071948522883     0.057563875931    -0.079257757902
       8       -0.002937137915     0.000486788663    -0.002421468195
       9        0.063117535945    -0.080727426929    -0.065200545893
      10       -0.003000836529    -0.000586434212    -0.002310488368
      11        0.000239303097    -0.107739780796     0.055971759975
      12       -0.003493366686    -0.000792632352    -0.001362536625
      13        0.024222517976     0.057206206097    -0.104434278701
      14        0.003681811008     0.000397479347     0.000985048887
      15        0.014529024658    -0.080916513479    -0.089388455562
      16        0.003600262726    -0.000674939212     0.001105377455
      17       -0.048324188072    -0.106656492957     0.032060397361
      18        0.003125012690    -0.000874163147     0.002043858477
      19       -0.077642018187     0.015412016247     0.092150898063
      20        0.002897745873     0.000068146238     0.002512148082
      21       -0.032786417590     0.116699605559     0.007858224893
      22        0.003240582609     0.000859090066     0.001856402673


*** tstop() called on n067 at Mon Aug 28 11:26:46 2023
Module time:
	user time   =      79.26 seconds =       1.32 minutes
	system time =       0.14 seconds =       0.00 minutes
	total time  =         20 seconds =       0.33 minutes
Total time:
	user time   =     796.21 seconds =      13.27 minutes
	system time =       6.04 seconds =       0.10 minutes
	total time  =        213 seconds =       3.55 minutes

    			-----------------------------------------

    			 OPTKING 3.0: for geometry optimizations 

    			     By R.A. King, Bethel University     

    			        with contributions from          

    			    A.V. Copan, J. Cayton, A. Heide      

    			-----------------------------------------

    
	                            ===> Fragment 1 <== 

	 Z (Atomic Numbers)          Masses                          Geom                  
	       4.000000             9.012183         -1.71736398  0.01928066 -0.88727556   
	       4.000000             9.012183          1.71846047 -0.02543026  0.88517416   
	       6.000000            12.000000          3.28687646  0.21448937  4.23934355   
	       1.000000             1.007825          2.24686569  0.45673336  5.98053720   
	       6.000000            12.000000          4.13889728  2.17953998  2.63213148   
	       1.000000             1.007825          3.86123982  4.18032531  2.93505458   
	       6.000000            12.000000          5.24355558  1.05691038  0.46648644   
	       1.000000             1.007825          5.95456504  2.05296612 -1.16886365   
	       6.000000            12.000000          5.07427392 -1.60200987  0.73531888   
	       1.000000             1.007825          5.63404859 -2.98527050 -0.65941238   
	       6.000000            12.000000          3.86498148 -2.12268611  3.06708974   
	       1.000000             1.007825          3.34254779 -3.97195320  3.75939091   
	       6.000000            12.000000         -3.39496835  1.14892114 -3.99821830   
	       1.000000             1.007825         -2.45186274  2.12579617 -5.52409655   
	       6.000000            12.000000         -3.58021820 -1.50691885 -3.71007286   
	       1.000000             1.007825         -2.80291716 -2.90684686 -4.97813578   
	       6.000000            12.000000         -4.79030433 -2.00333101 -1.37342650   
	       1.000000             1.007825         -5.09560848 -3.84759032 -0.55033739   
	       6.000000            12.000000         -5.35314036  0.34565526 -0.21748103   
	       1.000000             1.007825         -6.16205652  0.60360287  1.64023313   
	       6.000000            12.000000         -4.49068825  2.29379282 -1.83964083   
	       1.000000             1.007825         -4.52787806  4.29527735 -1.43380325   

	 - Coordinate -           - BOHR/RAD -       - ANG/DEG -
	 R(1,2)           =         3.866325           2.045971
	 R(1,13)          =         3.710581           1.963555
	 R(1,15)          =         3.710485           1.963504
	 R(1,17)          =         3.710831           1.963687
	 R(1,19)          =         3.711336           1.963954
	 R(1,21)          =         3.711029           1.963792
	 R(2,3)           =         3.710518           1.963521
	 R(2,5)           =         3.711101           1.963830
	 R(2,7)           =         3.711207           1.963886
	 R(2,9)           =         3.710734           1.963636
	 R(2,11)          =         3.710363           1.963439
	 R(3,4)           =         2.042562           1.080877
	 R(3,5)           =         2.677778           1.417019
	 R(3,11)          =         2.677830           1.417047
	 R(5,6)           =         2.042547           1.080869
	 R(5,7)           =         2.677795           1.417028
	 R(7,8)           =         2.042555           1.080874
	 R(7,9)           =         2.677832           1.417048
	 R(9,10)          =         2.042555           1.080874
	 R(9,11)          =         2.677806           1.417034
	 R(11,12)         =         2.042549           1.080870
	 R(13,14)         =         2.042557           1.080874
	 R(13,15)         =         2.677841           1.417052
	 R(13,21)         =         2.677833           1.417048
	 R(15,16)         =         2.042542           1.080867
	 R(15,17)         =         2.677807           1.417034
	 R(17,18)         =         2.042542           1.080867
	 R(17,19)         =         2.677822           1.417042
	 R(19,20)         =         2.042544           1.080868
	 R(19,21)         =         2.677773           1.417016
	 R(21,22)         =         2.042554           1.080873
	 B(1,2,3)         =         2.480444         142.118980
	 B(1,2,5)         =         2.479203         142.047848
	 B(1,2,7)         =         2.479972         142.091924
	 B(1,2,9)         =         2.481698         142.190811
	 B(1,2,11)        =         2.481976         142.206733
	 B(1,13,14)       =         2.169009         124.275071
	 B(1,13,15)       =         1.201591          68.846094
	 B(1,13,21)       =         1.201810          68.858639
	 B(1,15,13)       =         1.201658          68.849930
	 B(1,15,16)       =         2.168996         124.274308
	 B(1,15,17)       =         1.201763          68.855944
	 B(1,17,15)       =         1.201522          68.842135
	 B(1,17,18)       =         2.168964         124.272506
	 B(1,17,19)       =         1.201861          68.861544
	 B(1,19,17)       =         1.201509          68.841370
	 B(1,19,20)       =         2.169072         124.278653
	 B(1,19,21)       =         1.201595          68.846321
	 B(1,21,13)       =         1.201498          68.840764
	 B(1,21,19)       =         1.201809          68.858594
	 B(1,21,22)       =         2.169048         124.277314
	 B(2,1,13)        =         2.481022         142.152084
	 B(2,1,15)        =         2.481853         142.199699
	 B(2,1,17)        =         2.481035         142.152832
	 B(2,1,19)        =         2.479722         142.077617
	 B(2,1,21)        =         2.479723         142.077639
	 B(2,3,4)         =         2.168848         124.265826
	 B(2,3,5)         =         1.201865          68.861817
	 B(2,3,11)        =         1.201562          68.844451
	 B(2,5,3)         =         1.201459          68.838556
	 B(2,5,6)         =         2.169002         124.274670
	 B(2,5,7)         =         1.201733          68.854222
	 B(2,7,5)         =         1.201659          68.849983
	 B(2,7,8)         =         2.169033         124.276461
	 B(2,7,9)         =         1.201507          68.841256
	 B(2,9,7)         =         1.201836          68.860144
	 B(2,9,10)        =         2.168989         124.273925
	 B(2,9,11)        =         1.201502          68.840985
	 B(2,11,3)        =         1.201670          68.850648
	 B(2,11,9)        =         1.201760          68.855794
	 B(2,11,12)       =         2.168930         124.270509
	 B(3,2,5)         =         0.738268          42.299627
	 B(3,2,7)         =         1.246785          71.435504
	 B(3,2,9)         =         1.246874          71.440607
	 B(3,2,11)        =         0.738360          42.304902
	 B(3,5,6)         =         2.197608         125.913669
	 B(3,5,7)         =         1.884956         108.000001
	 B(3,11,9)        =         1.884918         107.997834
	 B(3,11,12)       =         2.197655         125.916370
	 B(4,3,5)         =         2.197680         125.917808
	 B(4,3,11)        =         2.197659         125.916565
	 B(5,2,7)         =         0.738201          42.295796
	 B(5,2,9)         =         1.246772          71.434791
	 B(5,2,11)        =         1.246860          71.439835
	 B(5,3,11)        =         1.884985         108.001701
	 B(5,7,8)         =         2.197735         125.920945
	 B(5,7,9)         =         1.884945         107.999370
	 B(6,5,7)         =         2.197754         125.922052
	 B(7,2,9)         =         0.738250          42.298601
	 B(7,2,11)        =         1.246842          71.438809
	 B(7,9,10)        =         2.197604         125.913410
	 B(7,9,11)        =         1.884975         108.001095
	 B(8,7,9)         =         2.197639         125.915457
	 B(9,2,11)        =         0.738331          42.303222
	 B(9,11,12)       =         2.197762         125.922488
	 B(10,9,11)       =         2.197751         125.921864
	 B(13,1,15)       =         0.738344          42.303976
	 B(13,1,17)       =         1.246864          71.440018
	 B(13,1,19)       =         1.246783          71.435415
	 B(13,1,21)       =         0.738285          42.300598
	 B(13,15,16)      =         2.197681         125.917839
	 B(13,15,17)      =         1.884952         107.999772
	 B(13,21,19)      =         1.885007         108.002942
	 B(13,21,22)      =         2.197593         125.912816
	 B(14,13,15)      =         2.197722         125.920205
	 B(14,13,21)      =         2.197702         125.919041
	 B(15,1,17)       =         0.738308          42.301921
	 B(15,1,19)       =         1.246795          71.436116
	 B(15,1,21)       =         1.246832          71.438213
	 B(15,13,21)      =         1.884916         107.997710
	 B(15,17,18)      =         2.197605         125.913475
	 B(15,17,19)      =         1.884983         108.001557
	 B(16,15,17)      =         2.197706         125.919286
	 B(17,1,19)       =         0.738223          42.297086
	 B(17,1,21)       =         1.246747          71.433314
	 B(17,19,20)      =         2.197689         125.918304
	 B(17,19,21)      =         1.884921         107.998019
	 B(18,17,19)      =         2.197743         125.921419
	 B(19,1,21)       =         0.738188          42.295085
	 B(19,21,22)      =         2.197730         125.920673
	 B(20,19,21)      =         2.197708         125.919386
	 D(1,2,3,4)       =         0.002512           0.143939
	 D(1,2,3,5)       =        -2.089145        -119.699182
	 D(1,2,3,11)      =         2.093972         119.975768
	 D(1,2,5,3)       =         2.091930         119.858768
	 D(1,2,5,6)       =         0.000598           0.034259
	 D(1,2,5,7)       =        -2.091066        -119.809235
	 D(1,2,7,5)       =         2.089339         119.710321
	 D(1,2,7,8)       =        -0.002257          -0.129345
	 D(1,2,7,9)       =        -2.093652        -119.957442
	 D(1,2,9,7)       =         2.089783         119.735732
	 D(1,2,9,10)      =        -0.001757          -0.100674
	 D(1,2,9,11)      =        -2.093287        -119.936520
	 D(1,2,11,3)      =        -2.090540        -119.779113
	 D(1,2,11,9)      =         2.092665         119.900851
	 D(1,2,11,12)     =         0.000972           0.055713
	 D(1,13,15,16)    =        -2.054846        -117.733979
	 D(1,13,15,17)    =         1.009397          57.834182
	 D(1,13,21,19)    =        -1.009317         -57.829628
	 D(1,13,21,22)    =         2.054817         117.732341
	 D(1,15,13,14)    =         2.054819         117.732429
	 D(1,15,13,21)    =        -1.009437         -57.836488
	 D(1,15,17,18)    =        -2.054727        -117.727204
	 D(1,15,17,19)    =         1.009412          57.835070
	 D(1,17,15,13)    =        -1.009332         -57.830484
	 D(1,17,15,16)    =         2.054909         117.737596
	 D(1,17,19,20)    =        -2.054847        -117.734059
	 D(1,17,19,21)    =         1.009115          57.818019
	 D(1,19,17,15)    =        -1.009204         -57.823134
	 D(1,19,17,18)    =         2.054928         117.738694
	 D(1,19,21,13)    =         1.009126          57.818664
	 D(1,19,21,22)    =        -2.055001        -117.742863
	 D(1,21,13,14)    =        -2.054954        -117.740210
	 D(1,21,13,15)    =         1.009302          57.828772
	 D(1,21,19,17)    =        -1.009062         -57.814974
	 D(1,21,19,20)    =         2.054899         117.737042
	 D(2,1,13,14)     =         0.001900           0.108840
	 D(2,1,13,15)     =         2.093444         119.945494
	 D(2,1,13,21)     =        -2.089743        -119.733475
	 D(2,1,15,13)     =        -2.091582        -119.838801
	 D(2,1,15,16)     =        -0.000049          -0.002809
	 D(2,1,15,17)     =         2.091573         119.838326
	 D(2,1,17,15)     =        -2.093406        -119.943348
	 D(2,1,17,18)     =        -0.002041          -0.116937
	 D(2,1,17,19)     =         2.089683         119.730038
	 D(2,1,19,17)     =        -2.092628        -119.898738
	 D(2,1,19,20)     =        -0.001174          -0.067249
	 D(2,1,19,21)     =         2.090352         119.768343
	 D(2,1,21,13)     =         2.092657         119.900425
	 D(2,1,21,19)     =        -2.090351        -119.768292
	 D(2,1,21,22)     =         0.001324           0.075851
	 D(2,3,5,6)       =         2.054735         117.727668
	 D(2,3,5,7)       =        -1.009232         -57.824757
	 D(2,3,11,9)      =         1.009424          57.835728
	 D(2,3,11,12)     =        -2.054773        -117.729806
	 D(2,5,3,4)       =        -2.054790        -117.730807
	 D(2,5,3,11)      =         1.009256          57.826086
	 D(2,5,7,8)       =         2.054890         117.736498
	 D(2,5,7,9)       =        -1.009084         -57.816235
	 D(2,7,5,3)       =         1.009064          57.815124
	 D(2,7,5,6)       =        -2.054895        -117.736829
	 D(2,7,9,10)      =         2.054951         117.740034
	 D(2,7,9,11)      =        -1.009169         -57.821132
	 D(2,9,7,5)       =         1.009177          57.821602
	 D(2,9,7,8)       =        -2.054801        -117.731440
	 D(2,9,11,3)      =        -1.009369         -57.832563
	 D(2,9,11,12)     =         2.054822         117.732628
	 D(2,11,3,4)      =         2.054605         117.720197
	 D(2,11,3,5)      =        -1.009442         -57.836766
	 D(2,11,9,7)      =         1.009375          57.832914
	 D(2,11,9,10)     =        -2.054737        -117.727777
	 D(3,2,1,13)      =         2.518958         144.325646
	 D(3,2,1,15)      =        -2.506018        -143.584270
	 D(3,2,1,17)      =        -1.247864         -71.497347
	 D(3,2,1,19)      =         0.008138           0.466257
	 D(3,2,1,21)      =         1.262853          72.356126
	 D(3,2,5,6)       =        -2.091332        -119.824509
	 D(3,2,5,7)       =         2.100190         120.331997
	 D(3,2,7,5)       =        -0.659557         -37.789840
	 D(3,2,7,8)       =        -2.751154        -157.629506
	 D(3,2,7,9)       =         1.440637          82.542397
	 D(3,2,9,7)       =        -1.440408         -82.529316
	 D(3,2,9,10)      =         2.751237         157.634278
	 D(3,2,9,11)      =         0.659707          37.798432
	 D(3,2,11,9)      =        -2.099981        -120.320036
	 D(3,2,11,12)     =         2.091512         119.834826
	 D(3,5,2,7)       =        -2.100190        -120.331997
	 D(3,5,2,9)       =        -1.440646         -82.542955
	 D(3,5,2,11)      =        -0.659671         -37.796359
	 D(3,5,7,8)       =         3.063954         175.551621
	 D(3,5,7,9)       =        -0.000019          -0.001112
	 D(3,11,2,5)      =         0.659592          37.791864
	 D(3,11,2,7)      =         1.440420          82.530004
	 D(3,11,2,9)      =         2.099981         120.320036
	 D(3,11,9,7)      =         0.000000           0.000000
	 D(3,11,9,10)     =        -3.064106        -175.560339
	 D(4,3,2,5)       =         2.091657         119.843121
	 D(4,3,2,7)       =         2.751157         157.629696
	 D(4,3,2,9)       =        -2.751142        -157.628829
	 D(4,3,2,11)      =        -2.091460        -119.831829
	 D(4,3,5,6)       =        -0.000055          -0.003139
	 D(4,3,5,7)       =        -3.064023        -175.555564
	 D(4,3,11,9)      =         3.064029         175.555924
	 D(4,3,11,12)     =        -0.000168          -0.009609
	 D(5,2,1,13)      =         1.263908          72.416570
	 D(5,2,1,15)      =         2.522117         144.506655
	 D(5,2,1,17)      =        -2.502914        -143.406422
	 D(5,2,1,19)      =        -1.246912         -71.442818
	 D(5,2,1,21)      =         0.007803           0.447051
	 D(5,2,3,11)      =        -2.100068        -120.325050
	 D(5,2,7,8)       =        -2.091597        -119.839665
	 D(5,2,7,9)       =         2.100194         120.332237
	 D(5,2,9,7)       =        -0.659501         -37.786652
	 D(5,2,9,10)      =        -2.751041        -157.623057
	 D(5,2,9,11)      =         1.440614          82.541097
	 D(5,2,11,9)      =        -1.440388         -82.528172
	 D(5,2,11,12)     =         2.751105         157.626690
	 D(5,3,2,7)       =         0.659500          37.786575
	 D(5,3,2,9)       =         1.440386          82.528050
	 D(5,3,2,11)      =         2.100068         120.325050
	 D(5,3,11,9)      =        -0.000018          -0.001039
	 D(5,3,11,12)     =        -3.064215        -175.566572
	 D(5,7,2,9)       =        -2.100194        -120.332237
	 D(5,7,2,11)      =        -1.440565         -82.538267
	 D(5,7,9,10)      =         3.064129         175.561636
	 D(5,7,9,11)      =         0.000000           0.000000
	 D(6,5,2,7)       =         2.091664         119.843494
	 D(6,5,2,9)       =         2.751207         157.632536
	 D(6,5,2,11)      =        -2.751003        -157.620868
	 D(6,5,3,11)      =         3.063991         175.553753
	 D(6,5,7,8)       =        -0.000000          -0.000000
	 D(6,5,7,9)       =        -3.063979        -175.553064
	 D(7,2,1,13)      =         0.009421           0.539807
	 D(7,2,1,15)      =         1.267631          72.629892
	 D(7,2,1,17)      =         2.525785         144.716815
	 D(7,2,1,19)      =        -2.501399        -143.319581
	 D(7,2,1,21)      =        -1.246684         -71.429713
	 D(7,2,3,11)      =        -1.440568         -82.538475
	 D(7,2,9,10)      =        -2.091540        -119.836406
	 D(7,2,9,11)      =         2.100115         120.327748
	 D(7,2,11,9)      =        -0.659560         -37.790032
	 D(7,2,11,12)     =        -2.751253        -157.635170
	 D(7,5,2,9)       =         0.659543          37.789042
	 D(7,5,2,11)      =         1.440519          82.535638
	 D(7,5,3,11)      =         0.000023           0.001329
	 D(7,9,2,11)      =        -2.100115        -120.327748
	 D(7,9,11,12)     =         3.064197         175.565541
	 D(8,7,2,9)       =         2.091395         119.828098
	 D(8,7,2,11)      =         2.751024         157.622068
	 D(8,7,9,10)      =         0.000150           0.008594
	 D(8,7,9,11)      =        -3.063970        -175.552572
	 D(9,2,1,13)      =        -1.247481         -71.475414
	 D(9,2,1,15)      =         0.010728           0.614670
	 D(9,2,1,17)      =         1.268882          72.701593
	 D(9,2,1,19)      =         2.524884         144.665197
	 D(9,2,1,21)      =        -2.503586        -143.444934
	 D(9,2,3,11)      =        -0.659682         -37.797000
	 D(9,2,11,12)     =        -2.091692        -119.845138
	 D(9,7,2,11)      =         0.659629          37.793970
	 D(10,9,2,11)     =         2.091530         119.835846
	 D(10,9,11,12)    =         0.000085           0.004851
	 D(11,2,1,13)     =        -2.506416        -143.607042
	 D(11,2,1,15)     =        -1.248206         -71.516957
	 D(11,2,1,17)     =         0.009948           0.569966
	 D(11,2,1,19)     =         1.265950          72.533570
	 D(11,2,1,21)     =         2.520665         144.423439
	 D(13,1,15,16)    =         2.091533         119.835992
	 D(13,1,15,17)    =        -2.100030        -120.322874
	 D(13,1,17,15)    =         0.659674          37.796510
	 D(13,1,17,18)    =         2.751039         157.622921
	 D(13,1,17,19)    =        -1.440422         -82.530104
	 D(13,1,19,17)    =         1.440628          82.541904
	 D(13,1,19,20)    =        -2.751103        -157.626606
	 D(13,1,19,21)    =        -0.659578         -37.791014
	 D(13,1,21,19)    =         2.100177         120.331283
	 D(13,1,21,22)    =        -2.091333        -119.824573
	 D(13,15,1,17)    =         2.100030         120.322874
	 D(13,15,1,19)    =         1.440471          82.532917
	 D(13,15,1,21)    =         0.659646          37.794936
	 D(13,15,17,18)   =        -3.064060        -175.557688
	 D(13,15,17,19)   =         0.000080           0.004586
[...]
	         D(7,2,11,12)    -157.59070        0.00012        0.54692    -157.04378
	           D(7,5,2,9)      37.79687        0.00003        0.11413      37.91100
	          D(7,5,2,11)      82.62232        0.00027        1.21175      83.83408
	          D(7,5,3,11)       0.00000       -0.00000       -0.00110      -0.00110
	          D(7,9,2,11)    -120.42498       -0.00030       -1.31759    -121.74258
	         D(7,9,11,12)     176.33560       -0.00016       -0.43117     175.90443
	           D(8,7,2,9)     119.77722       -0.00015       -0.65873     119.11848
	          D(8,7,2,11)     157.58002       -0.00012       -0.54580     157.03421
	          D(8,7,9,10)       0.00639       -0.00000       -0.00086       0.00553
	          D(8,7,9,11)    -176.32602        0.00016        0.43040    -175.89562
	          D(9,2,1,13)     -71.47152       -0.00000       -0.00221     -71.47373
	          D(9,2,1,15)       0.61222       -0.00000       -0.00988       0.60234
	          D(9,2,1,17)      72.69508       -0.00000       -0.01567      72.67941
	          D(9,2,1,19)     144.66249       -0.00000       -0.01203     144.65046
	          D(9,2,1,21)    -143.44068       -0.00000       -0.00367    -143.44435
	          D(9,2,3,11)     -37.80470       -0.00003       -0.11132     -37.91602
	         D(9,2,11,12)    -119.79156        0.00015        0.66151    -119.13005
	          D(9,7,2,11)      37.80280        0.00003        0.11293      37.91573
	         D(10,9,2,11)     119.78789       -0.00015       -0.66092     119.12697
	        D(10,9,11,12)       0.00353        0.00000       -0.00012       0.00341
	         D(11,2,1,13)    -143.59773        0.00000        0.00817    -143.58956
	         D(11,2,1,15)     -71.51399        0.00000        0.00049     -71.51350
	         D(11,2,1,17)       0.56887       -0.00000       -0.00529       0.56358
	         D(11,2,1,19)      72.53629       -0.00000       -0.00166      72.53463
	         D(11,2,1,21)     144.43312        0.00000        0.00670     144.43981
	        D(13,1,15,16)     119.78646       -0.00015       -0.65784     119.12863
	        D(13,1,15,17)    -120.42106       -0.00030       -1.31943    -121.74049
	        D(13,1,17,15)      37.80422        0.00003        0.11275      37.91697
	        D(13,1,17,18)     157.58111       -0.00012       -0.54569     157.03542
	        D(13,1,17,19)     -82.62023       -0.00027       -1.20898     -83.82922
	        D(13,1,19,17)      82.62813        0.00027        1.20902      83.83715
	        D(13,1,19,20)    -157.58843        0.00012        0.54819    -157.04025
	        D(13,1,19,21)     -37.80069       -0.00003       -0.11243     -37.91313
	        D(13,1,21,19)     120.42629        0.00030        1.31967     121.74597
	        D(13,1,21,22)    -119.77686        0.00015        0.65689    -119.11998
	        D(13,15,1,17)     120.42106        0.00030        1.31943     121.74049
	        D(13,15,1,19)      82.62136        0.00027        1.20926      83.83062
	        D(13,15,1,21)      37.80156        0.00003        0.11238      37.91394
	       D(13,15,17,18)    -176.32968        0.00016        0.42930    -175.90038
	       D(13,15,17,19)       0.00215       -0.00000       -0.00215       0.00000
	        D(13,21,1,15)     -37.80350       -0.00003       -0.11232     -37.91582
	        D(13,21,1,17)     -82.62816       -0.00027       -1.20950     -83.83765
	        D(13,21,1,19)    -120.42629       -0.00030       -1.31967    -121.74597
	       D(13,21,19,17)       0.00179       -0.00000       -0.00095       0.00084
	       D(13,21,19,20)     176.32703       -0.00016       -0.42777     175.89926
	        D(14,13,1,15)    -119.78478        0.00015        0.66017    -119.12461
	        D(14,13,1,17)    -157.58826        0.00012        0.54806    -157.04020
	        D(14,13,1,19)     157.59055       -0.00012       -0.54802     157.04253
	        D(14,13,1,21)     119.79236       -0.00015       -0.65966     119.13270
	       D(14,13,15,16)      -0.00100       -0.00000       -0.00037      -0.00137
	       D(14,13,15,17)     176.33767       -0.00016       -0.43272     175.90494
	       D(14,13,21,19)    -176.33915        0.00016        0.43394    -175.90521
	       D(14,13,21,22)      -0.00754        0.00000        0.00405      -0.00349
	        D(15,1,13,21)     120.42286        0.00030        1.31983     121.74269
	        D(15,1,17,18)     119.77688       -0.00015       -0.65844     119.11845
	        D(15,1,17,19)    -120.42445       -0.00030       -1.32173    -121.74619
	        D(15,1,19,17)      37.80240        0.00003        0.11092      37.91332
	        D(15,1,19,20)     157.58584       -0.00012       -0.54991     157.03593
	        D(15,1,19,21)     -82.62642       -0.00027       -1.21053     -83.83695
	        D(15,1,21,19)      82.62280        0.00027        1.20735      83.83015
	        D(15,1,21,22)    -157.58036        0.00012        0.54457    -157.03579
	        D(15,13,1,17)     -37.80348       -0.00003       -0.11211     -37.91559
	        D(15,13,1,19)     -82.62467       -0.00027       -1.20819     -83.83286
	        D(15,13,1,21)    -120.42286       -0.00030       -1.31983    -121.74269
	       D(15,13,21,19)      -0.00000       -0.00000        0.00000      -0.00000
	       D(15,13,21,22)     176.33115       -0.00016       -0.43015     175.90100
	        D(15,17,1,19)     120.42445        0.00030        1.32173     121.74619
	        D(15,17,1,21)      82.62732        0.00027        1.21089      83.83821
	       D(15,17,19,20)    -176.32775        0.00016        0.42857    -175.89918
	       D(15,17,19,21)      -0.00244        0.00000        0.00244      -0.00000
	        D(16,15,1,17)    -119.79247        0.00015        0.66159    -119.13088
	        D(16,15,1,19)    -157.59218        0.00012        0.55142    -157.04076
	        D(16,15,1,21)     157.58802       -0.00012       -0.54545     157.04257
	       D(16,15,13,21)    -176.33971        0.00016        0.43373    -175.90599
	       D(16,15,17,18)       0.00890       -0.00000       -0.00295       0.00595
	       D(16,15,17,19)     176.34073       -0.00016       -0.43422     175.90652
	        D(17,1,13,21)      82.61938        0.00027        1.20772      83.82710
	        D(17,1,19,20)     119.78344       -0.00015       -0.66083     119.12260
	        D(17,1,19,21)    -120.42882       -0.00030       -1.32146    -121.75028
	        D(17,1,21,19)      37.79814        0.00003        0.11017      37.90831
	        D(17,1,21,22)     157.59498       -0.00012       -0.55261     157.04237
	        D(17,15,1,19)     -37.79971       -0.00003       -0.11017     -37.90987
	        D(17,15,1,21)     -82.61950       -0.00027       -1.20704     -83.82655
	       D(17,15,13,21)      -0.00105        0.00000        0.00105       0.00000
	        D(17,19,1,21)     120.42882        0.00030        1.32146     121.75028
	       D(17,19,21,22)    -176.32941        0.00016        0.42885    -175.90055
	        D(18,17,1,19)    -119.79866        0.00015        0.66330    -119.13536
	        D(18,17,1,21)    -157.59579        0.00012        0.55245    -157.04334
	       D(18,17,19,20)       0.00363       -0.00000       -0.00266       0.00097
	       D(18,17,19,21)     176.32895       -0.00016       -0.42943     175.89952
	        D(19,1,13,21)      37.79819        0.00003        0.11164      37.90983
	        D(19,1,21,22)     119.79684       -0.00015       -0.66278     119.13406
	        D(19,17,1,21)     -37.79713       -0.00003       -0.11084     -37.90797
	        D(20,19,1,21)    -119.78774        0.00015        0.66062    -119.12712
	       D(20,19,21,22)      -0.00416        0.00000        0.00204      -0.00213
	-------------------------------------------------------------------------------

	                                 ==> Convergence Check <==                                  
    
	Measures of convergence in internal coordinates in au.
    
	Criteria marked as inactive (o), active & met (*), and active & unmet ( ).

	----------------------------------------------------------------------------------------------
	   Step    Total Energy     Delta E     Max Force     RMS Force      Max Disp      RMS Disp   
	----------------------------------------------------------------------------------------------
	  Convergence Criteria     1.00e-06 *    3.00e-04 *             o    1.20e-03 *             o
	----------------------------------------------------------------------------------------------
	     3    -393.36126653   -5.80e-02      1.93e-02      4.39e-03 o    2.00e-01      3.34e-02 o  ~
	----------------------------------------------------------------------------------------------

Next Geometry in Ang 
	Fragment 1 (Ang)

	   Be  -0.7741738126   0.0087381929  -0.3999079586
	   Be   0.7745973145  -0.0113894844   0.3990515752
	    C   1.4537603219   0.1071942149   1.9975170645
	    H   0.9084880841   0.2352214668   2.9208857148
	    C   1.8714709206   1.0709133783   1.2092495728
	    H   1.7293083695   2.1290543333   1.3718731261
	    C   2.4130900972   0.5203375706   0.1470913497
	    H   2.7936827663   1.0470700793  -0.7154721666
	    C   2.3300821390  -0.7836698151   0.2789221432
	    H   2.6306293404  -1.5153543235  -0.4563463838
	    C   1.7371723514  -1.0389823044   1.4225754497
	    H   1.4655240149  -2.0170974055   1.7911151463
	    C  -1.5066040271   0.5614222215  -1.8792293536
	    H  -1.0123867886   1.0781095385  -2.6886091688
	    C  -1.5974112380  -0.7410726576  -1.7379189761
	    H  -1.1908615633  -1.4814181874  -2.4109118131
	    C  -2.1909132642  -0.9845122571  -0.5919897389
	    H  -2.3570440370  -1.9598536314  -0.1590497676
	    C  -2.4669001782   0.1674598112  -0.0251076729
	    H  -2.8994082163   0.3039209619   0.9550162014
	    C  -2.0439840615   1.1229149516  -0.8206206184
	    H  -2.0683233040   2.1815300221  -0.6083463953


    Structure for next step:
    Molecular point group: c1
    Full point group: C1

    Geometry (in Angstrom), charge = 0, multiplicity = 1:

    BE          -0.774177722094     0.008729013080    -0.399896537142
    BE           0.774593404993    -0.011398664245     0.399062996600
    C            1.453756412314     0.107185035138     1.997528485930
    H            0.908484174559     0.235212286999     2.920897136271
    C            1.871467011063     1.070904198486     1.209260994267
    H            1.729304459916     2.129045153501     1.371884547553
    C            2.413086187674     0.520328390765     0.147102771160
    H            2.793678856787     1.047060899480    -0.715460745222
    C            2.330078229463    -0.783678994877     0.278933564630
    H            2.630625430882    -1.515363503295    -0.456334962358
    C            1.737168441826    -1.038991484178     1.422586871075
    H            1.465520105341    -2.017106585274     1.791126567727
    C           -1.506607936675     0.561413041728    -1.879217932193
    H           -1.012390698131     1.078100358714    -2.688597747377
    C           -1.597415147551    -0.741081837441    -1.737907554712
    H           -1.190865472800    -1.481427367223    -2.410900391685
    C           -2.190917173710    -0.984521436932    -0.591978317520
    H           -2.357047946512    -1.959862811201    -0.159038346220
    C           -2.466904087768     0.167450631421    -0.025096251490
    H           -2.899412125866     0.303911782075     0.955027622803
    C           -2.043987971046     1.122905771836    -0.820609197001
    H           -2.068327213504     2.181520842333    -0.608334973924


Scratch directory: /tmp/931330.40.gen4.q/
gradient() will perform analytic gradient computation.
   => Libint2 <=

    Primary   basis highest AM E, G, H:  5, 4, 3
    Auxiliary basis highest AM E, G, H:  6, 5, 4
    Onebody   basis highest AM E, G, H:  6, 5, 4
    Solid Harmonics ordering:            gaussian

*** tstart() called on n067
*** at Mon Aug 28 11:31:21 2023

   => Loading Basis Set <=

    Name: SAD-FIT
    Role: ORBITAL
    Keyword: BASIS
    atoms 1-2                                 entry BE         line    85 file /opt/psi/4/1.9a/share/psi4/basis/sad-fit.gbs 
    atoms 3, 5, 7, 9, 11, 13, 15, 17, 19, 21  entry C          line   163 file /opt/psi/4/1.9a/share/psi4/basis/sad-fit.gbs 
    atoms 4, 6, 8, 10, 12, 14, 16, 18, 20, 22 entry H          line    16 file /opt/psi/4/1.9a/share/psi4/basis/sad-fit.gbs 


         ---------------------------------------------------------
                                   SCF
               by Justin Turney, Rob Parrish, Andy Simmonett
                          and Daniel G. A. Smith
                              RKS Reference
                        4 Threads,    500 MiB Core
         ---------------------------------------------------------

  ==> Geometry <==

    Molecular point group: c1
    Full point group: C1

    Geometry (in Angstrom), charge = 0, multiplicity = 1:

       Center              X                  Y                   Z               Mass       
    ------------   -----------------  -----------------  -----------------  -----------------
         BE          -0.774177722094     0.008729013080    -0.399896537142     9.012183065000
         BE           0.774593404993    -0.011398664245     0.399062996600     9.012183065000
         C            1.453756412314     0.107185035138     1.997528485930    12.000000000000
         H            0.908484174559     0.235212286999     2.920897136271     1.007825032230
         C            1.871467011063     1.070904198486     1.209260994267    12.000000000000
         H            1.729304459916     2.129045153501     1.371884547553     1.007825032230
         C            2.413086187674     0.520328390765     0.147102771160    12.000000000000
         H            2.793678856787     1.047060899480    -0.715460745222     1.007825032230
         C            2.330078229463    -0.783678994877     0.278933564630    12.000000000000
         H            2.630625430882    -1.515363503295    -0.456334962358     1.007825032230
         C            1.737168441826    -1.038991484178     1.422586871075    12.000000000000
         H            1.465520105341    -2.017106585274     1.791126567727     1.007825032230
         C           -1.506607936675     0.561413041728    -1.879217932193    12.000000000000
         H           -1.012390698131     1.078100358714    -2.688597747377     1.007825032230
         C           -1.597415147551    -0.741081837441    -1.737907554712    12.000000000000
         H           -1.190865472800    -1.481427367223    -2.410900391685     1.007825032230
         C           -2.190917173710    -0.984521436932    -0.591978317520    12.000000000000
         H           -2.357047946512    -1.959862811201    -0.159038346220     1.007825032230
         C           -2.466904087768     0.167450631421    -0.025096251490    12.000000000000
         H           -2.899412125866     0.303911782075     0.955027622803     1.007825032230
         C           -2.043987971046     1.122905771836    -0.820609197001    12.000000000000
         H           -2.068327213504     2.181520842333    -0.608334973924     1.007825032230

  Running in c1 symmetry.

  Rotational constants: A =      0.08500  B =      0.02268  C =      0.02268 [cm^-1]
  Rotational constants: A =   2548.23201  B =    679.78410  C =    679.78271 [MHz]
  Nuclear repulsion =  584.241390911702979

  Charge       = 0
  Multiplicity = 1
  Electrons    = 78
  Nalpha       = 39
  Nbeta        = 39

  ==> Algorithm <==

  SCF Algorithm Type is DF.
  DIIS enabled.
  MOM disabled.
  Fractional occupation disabled.
  Guess Type is READ.
  Energy threshold   = 1.00e-08
  Density threshold  = 1.00e-08
  Integral threshold = 1.00e-12

  ==> Primary Basis <==

  Basis Set: SAD-FIT
    Blend: SAD-FIT
    Number of shells: 218
    Number of basis functions: 590
    Number of Cartesian functions: 672
    Spherical Harmonics?: true
    Max angular momentum: 3

  ==> DFT Potential <==

   => LibXC <=

    Version 6.1.0
    S. Lehtola, C. Steigemann, M. J.T. Oliveira, and M. A.L. Marques.,  SoftwareX 7, 15 (2018) (10.1016/j.softx.2017.11.002)

   => Composite Functional: PW6B95 <= 

    PW6B95 Hybrid Meta-GGA XC Functional

    Y. Zhao and D. Truhlar, J. Phys. Chem. A., 109,5656-5667, 2005


    Deriv               =              1
    GGA                 =           TRUE
    Meta                =           TRUE

    Exchange Hybrid     =           TRUE
    MP2 Hybrid          =          FALSE

   => Exchange Functionals <=

    0.7200   XC_GGA_X_MPW91

   => Exact (HF) Exchange <=

    0.2800               HF 

   => Correlation Functionals <=

    1.0000   XC_MGGA_C_BC95

   => LibXC Density Thresholds  <==

    XC_MGGA_C_BC95:  1.00E-14 
    XC_GGA_X_MPW91:  1.00E-15 

   => Molecular Quadrature <=

    Radial Scheme          =       TREUTLER
    Pruning Scheme         =           NONE
    Nuclear Scheme         =       TREUTLER

    Blocking Scheme        =         OCTREE
    BS radius alpha        =              1
    Pruning alpha          =              1
    Radial Points          =             75
    Spherical Points       =            302
    Total Points           =         452521
    Total Blocks           =           3343
    Max Points             =            256
    Max Functions          =            454
    Weights Tolerance      =       1.00E-15

   => Loading Basis Set <=

    Name: (SAD-FIT AUX)
    Role: JKFIT
    Keyword: DF_BASIS_SCF
    atoms 1-2                                 entry BE         line    96 file /opt/psi/4/1.9a/share/psi4/basis/def2-universal-jkfit.gbs 
    atoms 3, 5, 7, 9, 11, 13, 15, 17, 19, 21  entry C          line   198 file /opt/psi/4/1.9a/share/psi4/basis/def2-universal-jkfit.gbs 
    atoms 4, 6, 8, 10, 12, 14, 16, 18, 20, 22 entry H          line    18 file /opt/psi/4/1.9a/share/psi4/basis/def2-universal-jkfit.gbs 

   => Loading Basis Set <=

    Name: SAD-FIT
    Role: ORBITAL
    Keyword: BASIS
    atoms 1-2                                 entry BE         line    85 file /opt/psi/4/1.9a/share/psi4/basis/sad-fit.gbs 
    atoms 3, 5, 7, 9, 11, 13, 15, 17, 19, 21  entry C          line   163 file /opt/psi/4/1.9a/share/psi4/basis/sad-fit.gbs 
    atoms 4, 6, 8, 10, 12, 14, 16, 18, 20, 22 entry H          line    16 file /opt/psi/4/1.9a/share/psi4/basis/sad-fit.gbs 

  Reading orbitals from file /tmp/931330.40.gen4.q/be_bond_compare.default.31790.180.npy, no projection.

  ==> Integral Setup <==

  ==> DiskDFJK: Density-Fitted J/K Matrices <==

    J tasked:                  Yes
    K tasked:                  Yes
    wK tasked:                  No
    OpenMP threads:              4
    Integrals threads:           4
    Memory [MiB]:              337
    Algorithm:                Disk
    Integral Cache:           NONE
    Schwarz Cutoff:          1E-12
    Fitting Condition:       1E-10

   => Auxiliary Basis Set <=

  Basis Set: (SAD-FIT AUX)
    Blend: DEF2-UNIVERSAL-JKFIT
    Number of shells: 344
    Number of basis functions: 1032
    Number of Cartesian functions: 1210
    Spherical Harmonics?: true
    Max angular momentum: 4

  Cached 0.4% of DFT collocation blocks in 0.040 [GiB].

  Minimum eigenvalue in the overlap matrix is 1.7849552064E-05.
  Reciprocal condition number of the overlap matrix is 1.8016510113E-06.
    Using symmetric orthogonalization.

  ==> Pre-Iterations <==

  SCF Guess: Orbitals guess was supplied from a previous computation.

   -------------------------------------------------------
    Irrep   Nso     Nmo     Nalpha   Nbeta   Ndocc  Nsocc
   -------------------------------------------------------
     A        590     590      39      39      39       0
   -------------------------------------------------------
    Total     590     590      39      39      39       0
   -------------------------------------------------------

  ==> Iterations <==

                           Total Energy        Delta E     RMS |[F,P]|

