
    -----------------------------------------------------------------------
          Psi4: An Open-Source Ab Initio Electronic Structure Package
                               Psi4 1.9a1.dev12 

                         Git: Rev {master} 6ebe472 dirty


    D. G. A. Smith, L. A. Burns, A. C. Simmonett, R. M. Parrish,
    M. C. Schieber, R. Galvelis, P. Kraus, H. Kruse, R. Di Remigio,
    A. Alenaizan, A. M. James, S. Lehtola, J. P. Misiewicz, M. Scheurer,
    R. A. Shaw, J. B. Schriber, Y. Xie, Z. L. Glick, D. A. Sirianni,
    J. S. O'Brien, J. M. Waldrop, A. Kumar, E. G. Hohenstein,
    B. P. Pritchard, B. R. Brooks, H. F. Schaefer III, A. Yu. Sokolov,
    K. Patkowski, A. E. DePrince III, U. Bozkaya, R. A. King,
    F. A. Evangelista, J. M. Turney, T. D. Crawford, C. D. Sherrill,
    J. Chem. Phys. 152(18) 184108 (2020). https://doi.org/10.1063/5.0006002

                            Additional Code Authors
    E. T. Seidl, C. L. Janssen, E. F. Valeev, M. L. Leininger,
    J. F. Gonthier, R. M. Richard, H. R. McAlexander, M. Saitow, X. Wang,
    P. Verma, M. H. Lechner, A. Jiang, S. Behnle, A. G. Heide,
    M. F. Herbst, and D. L. Poole

             Previous Authors, Complete List of Code Contributors,
                       and Citations for Specific Modules
    https://github.com/psi4/psi4/blob/master/codemeta.json
    https://github.com/psi4/psi4/graphs/contributors
    http://psicode.org/psi4manual/master/introduction.html#citing-psifour

    -----------------------------------------------------------------------


    Psi4 started on: Monday, 28 August 2023 10:07AM

    Process ID: 30523
    Host:       n039
    PSIDATADIR: /opt/psi/4/1.9a/share/psi4
    Memory:     500.0 MiB
    Threads:    4
    
  ==> Input File <==

--------------------------------------------------------------------------
import math
import os
import time
import pickle
import numpy as np

file_name = "methods"
job_id = os.environ["JOB_ID"]

# Minimal geometry from experiment.

becp = geometry("""
0 1
symmetry c1

Be 6.07874 2.45740 2.20602
Be 7.89690 2.43374 3.14396
C 8.72687 2.56070 4.91891
H 8.17652 2.68889 5.84031
C 9.17774 3.60056 4.06841
H 9.03081 4.65933 4.22871
C 9.76230 3.00649 2.92240
H 10.13855 3.53358 2.05701
C 9.67272 1.59945 3.06466
H 9.96894 0.86746 2.32660
C 9.03279 1.32392 4.29858
H 8.75633 0.34533 4.66493
C 5.19099 3.05518 0.55978
H 5.69006 3.57212 -0.24768
C 5.09296 1.64977 0.71226
H 5.50429 0.90896 0.04123
C 4.45261 1.38708 1.94876
H 4.29105 0.41114 2.38432
C 4.15477 2.63011 2.56046
H 3.72671 2.76661 3.54352
C 4.61116 3.66102 1.70205
H 4.59148 4.72016 1.91681
""")

# Convert to bohr first. This fixes unit issues that Psi4 seems to have.
becp.set_units(psi4.core.Bohr)
ideal_bebe = becp.xyz(0).distance(becp.xyz(1))
ideal_bec = min(becp.xyz(0).distance(becp.xyz(2)),
                becp.xyz(1).distance(becp.xyz(2)))
# Convert back.
becp.set_units(psi4.core.Angstrom)

methods = ["hf", "mp2", "b3lyp", "b97-1", "pw6b95", "cisd", "ccsd", "dsd-b3lyp-d3bj"]
basis_sets = ["cc-pVDZ", "aug-cc-pVDZ", "pcsseg-3", "aug-pcsseg-3", "aug-pcsseg-4", "cc-pVTZ", "def2-tzvp", "sad-fit"]

basis = basis_sets[(int(os.environ["SGE_TASK_ID"]) - 1) % len(basis_sets)]
method = methods[(int(os.environ["SGE_TASK_ID"]) - 1) // len(basis_sets)]
# First test, energies.
start_time = time.time()
en = energy(method + "/" + basis)
ideal_en = -416.31749560

# Second test, optimized structure.
try :
    optimize(method + "/" + basis)
except psi4.driver.p4util.OptimizationConvergenceError as e :
    task_id = os.environ["SGE_TASK_ID"]
    os.rename("in/be_bond_compare.out", f"out/be_bond_compare-{task_id}.out")
    raise e

end_time = time.time()

# Find the bond lengths. Set to bohr to fix units.
becp.set_units(psi4.core.Bohr)
bebe = becp.xyz(0).distance(becp.xyz(1))
bec = min(becp.xyz(0).distance(becp.xyz(2)),
          becp.xyz(1).distance(becp.xyz(2)))

dat_file = f"out/methods-{job_id}.dat"
txt_file = f"out/methods-{job_id}.txt"
dat_lock = f"out/lock.methods-{job_id}.dat"
txt_lock = f"out/lock.methods-{job_id}.txt"

# Report these in a file, along with their differences.
while os.path.isfile(dat_lock) :
    time.sleep(0.3)

# Obtain a lock and write lines to file.
with open(dat_lock, "w+") as _ :
    with open(dat_file, "ba+") as fp :
        fp.write(pickle.dumps([en, bebe, bec,
                               en - ideal_en, bebe - ideal_bebe,
                               bec - ideal_bec, end_time - start_time, method, basis]))
        fp.write(b'\n')
# Release the lock.        
os.remove(dat_lock)
        

# Make the human readable output, since I seem to have forgotten.
while os.path.isfile(txt_lock) :
    time.sleep(0.3)

with open(txt_lock, "w+") as _ :
    with open(txt_file, "a+") as fp :
        print(f"Method: {method}, Basis: {basis}, Energy: {en}, Be-Be Distance: {bebe}, Be-C Distance: {bec}", file = fp)
        print(f"Energy Error: {en - ideal_en}, Be-Be Error: {bebe - ideal_bebe}, Be-C Error: {bec - ideal_bec}, Runtime: {end_time - start_time}", file = fp)

os.remove(txt_lock)
        
--------------------------------------------------------------------------

Scratch directory: /tmp/931330.32.gen4.q/
   => Libint2 <=

    Primary   basis highest AM E, G, H:  5, 4, 3
    Auxiliary basis highest AM E, G, H:  6, 5, 4
    Onebody   basis highest AM E, G, H:  6, 5, 4
    Solid Harmonics ordering:            gaussian

*** tstart() called on n039
*** at Mon Aug 28 10:07:14 2023

   => Loading Basis Set <=

    Name: SAD-FIT
    Role: ORBITAL
    Keyword: BASIS
    atoms 1-2                                 entry BE         line    85 file /opt/psi/4/1.9a/share/psi4/basis/sad-fit.gbs 
    atoms 3, 5, 7, 9, 11, 13, 15, 17, 19, 21  entry C          line   163 file /opt/psi/4/1.9a/share/psi4/basis/sad-fit.gbs 
    atoms 4, 6, 8, 10, 12, 14, 16, 18, 20, 22 entry H          line    16 file /opt/psi/4/1.9a/share/psi4/basis/sad-fit.gbs 


         ---------------------------------------------------------
                                   SCF
               by Justin Turney, Rob Parrish, Andy Simmonett
                          and Daniel G. A. Smith
                              RKS Reference
                        4 Threads,    500 MiB Core
         ---------------------------------------------------------

  ==> Geometry <==

    Molecular point group: c1
    Full point group: C1

    Geometry (in Angstrom), charge = 0, multiplicity = 1:

       Center              X                  Y                   Z               Mass       
    ------------   -----------------  -----------------  -----------------  -----------------
         BE          -0.908789883082     0.010202885521    -0.469526005401     9.012183065000
         BE           0.909370116918    -0.013457114479     0.468413994599     9.012183065000
         C            1.739340116918     0.113502885521     2.243363994599    12.000000000000
         H            1.188990116918     0.241692885521     3.164763994599     1.007825032230
         C            2.190210116918     1.153362885521     1.392863994599    12.000000000000
         H            2.043280116918     2.212132885521     1.553163994599     1.007825032230
         C            2.774770116918     0.559292885521     0.246853994599    12.000000000000
         H            3.151020116918     1.086382885521    -0.618536005401     1.007825032230
         C            2.685190116918    -0.847747114479     0.389113994599    12.000000000000
         H            2.981410116918    -1.579737114479    -0.348946005401     1.007825032230
         C            2.045260116918    -1.123277114479     1.623033994599    12.000000000000
         H            1.768800116918    -2.101867114479     1.989383994599     1.007825032230
         C           -1.796539883082     0.607982885521    -2.115766005401    12.000000000000
         H           -1.297469883082     1.124922885521    -2.923226005401     1.007825032230
         C           -1.894569883082    -0.797427114479    -1.963286005401    12.000000000000
         H           -1.483239883082    -1.538237114479    -2.634316005401     1.007825032230
         C           -2.534919883082    -1.060117114479    -0.726786005401    12.000000000000
         H           -2.696479883082    -2.036057114479    -0.291226005401     1.007825032230
         C           -2.832759883082     0.182912885521    -0.115086005401    12.000000000000
         H           -3.260819883082     0.319412885521     0.867973994599     1.007825032230
         C           -2.376369883082     1.213822885521    -0.973496005401    12.000000000000
         H           -2.396049883082     2.272962885521    -0.758736005401     1.007825032230

  Running in c1 symmetry.

  Rotational constants: A =      0.07428  B =      0.01703  C =      0.01703 [cm^-1]
  Rotational constants: A =   2226.91551  B =    510.41593  C =    510.41532 [MHz]
  Nuclear repulsion =  530.991458653511927

  Charge       = 0
  Multiplicity = 1
  Electrons    = 78
  Nalpha       = 39
  Nbeta        = 39

  ==> Algorithm <==

  SCF Algorithm Type is DF.
  DIIS enabled.
  MOM disabled.
  Fractional occupation disabled.
  Guess Type is SAD.
  Energy threshold   = 1.00e-06
  Density threshold  = 1.00e-06
  Integral threshold = 1.00e-12

  ==> Primary Basis <==

  Basis Set: SAD-FIT
    Blend: SAD-FIT
    Number of shells: 218
    Number of basis functions: 590
    Number of Cartesian functions: 672
    Spherical Harmonics?: true
    Max angular momentum: 3

  ==> DFT Potential <==

   => LibXC <=

    Version 6.1.0
    S. Lehtola, C. Steigemann, M. J.T. Oliveira, and M. A.L. Marques.,  SoftwareX 7, 1–5 (2018) (10.1016/j.softx.2017.11.002)

   => Composite Functional: B97-1 <= 

    B97-1 Hyb-GGA Exchange-Correlation Functional

    F. A. Hamprecht, A. J. Cohen, D. J. Tozer, and N. C. Handy.,  J. Chem. Phys. 109, 6264 (1998) (10.1063/1.477267)

    Deriv               =              1
    GGA                 =           TRUE
    Meta                =          FALSE

    Exchange Hybrid     =           TRUE
    MP2 Hybrid          =          FALSE

   => Exchange-Correlation Functionals <=

    1.0000       Becke 97-1

   => Exact (HF) Exchange <=

    0.2100               HF 

   => LibXC Density Thresholds  <==

    XC_HYB_GGA_XC_B97_1:  1.00E-14 

   => Molecular Quadrature <=

    Radial Scheme          =       TREUTLER
    Pruning Scheme         =           NONE
    Nuclear Scheme         =       TREUTLER

    Blocking Scheme        =         OCTREE
    BS radius alpha        =              1
    Pruning alpha          =              1
    Radial Points          =             75
    Spherical Points       =            302
    Total Points           =         456420
    Total Blocks           =           3353
    Max Points             =            256
    Max Functions          =            431
    Weights Tolerance      =       1.00E-15

   => Loading Basis Set <=

    Name: (SAD-FIT AUX)
    Role: JKFIT
    Keyword: DF_BASIS_SCF
    atoms 1-2                                 entry BE         line    96 file /opt/psi/4/1.9a/share/psi4/basis/def2-universal-jkfit.gbs 
    atoms 3, 5, 7, 9, 11, 13, 15, 17, 19, 21  entry C          line   198 file /opt/psi/4/1.9a/share/psi4/basis/def2-universal-jkfit.gbs 
    atoms 4, 6, 8, 10, 12, 14, 16, 18, 20, 22 entry H          line    18 file /opt/psi/4/1.9a/share/psi4/basis/def2-universal-jkfit.gbs 

  ==> Integral Setup <==

  ==> DiskDFJK: Density-Fitted J/K Matrices <==

    J tasked:                  Yes
    K tasked:                  Yes
    wK tasked:                  No
    OpenMP threads:              4
    Integrals threads:           4
    Memory [MiB]:              337
    Algorithm:                Disk
    Integral Cache:           NONE
    Schwarz Cutoff:          1E-12
    Fitting Condition:       1E-10

   => Auxiliary Basis Set <=

  Basis Set: (SAD-FIT AUX)
    Blend: DEF2-UNIVERSAL-JKFIT
    Number of shells: 344
    Number of basis functions: 1032
    Number of Cartesian functions: 1210
    Spherical Harmonics?: true
    Max angular momentum: 4

  Cached 1.1% of DFT collocation blocks in 0.037 [GiB].

  Minimum eigenvalue in the overlap matrix is 5.0260664523E-05.
  Reciprocal condition number of the overlap matrix is 5.7771744380E-06.
    Using symmetric orthogonalization.

  ==> Pre-Iterations <==

  SCF Guess: Superposition of Atomic Densities via on-the-fly atomic UHF (no occupation information).

   -------------------------
    Irrep   Nso     Nmo    
   -------------------------
     A        590     590 
   -------------------------
    Total     590     590
   -------------------------

  ==> Iterations <==

                           Total Energy        Delta E     RMS |[F,P]|

   @DF-RKS iter SAD:  -390.33532415767354   -3.90335e+02   0.00000e+00 
   @DF-RKS iter   1:  -392.30947504965047   -1.97415e+00   8.84356e-04 DIIS/ADIIS
   @DF-RKS iter   2:  -392.31541264908788   -5.93760e-03   8.98678e-04 DIIS/ADIIS
   @DF-RKS iter   3:  -392.45817330273246   -1.42761e-01   8.40991e-05 DIIS
                                                                                                                                                                                                                                                                                                                                                                                                                                                                                                                                                                                                                                                                                                                                                                                                                                                                                                                                                                                                                                                                                                                                                                                                                                                                                                                                                                                                                                                                                                                                                                                                                                                                                                                                                                                                                                                                                                                                                                                                                                                                                                                                                                                                                                                                                                                                                                                                                                                                                                                                                                                                                                                                                                                                                                                                                                                                                                                                                                                                                                                                                                                                                                                                                                                                                                                                                                                                                                                                                                                                                                                                                                                                                                                                                                                                                                                                                                                                                                                                                                                                                                                                                                                                                                                                                                                                                                                                                                                                                                                                                                                                                                                                                                                                                                                                                                                                                                                                                                                                                                                                                                                                                                                                                                                                                                                                                                                                                                                                                                                                                                                                                                                                                                                                                                                                                                                                                                                                                                                                                                                                                                                                                                                                                                                                                                                                                                                                                                                                                                                                                                                                                                                                                                                                                                                                                                                                                                                                                                                                                                                                                                                                                                                                                                                                                                                                                                                                                                                                                                                                                                                                                                                                                                                                                                                                                                                                                                                                                                                                                                                                                                                                                                                                                                                                                                                                                                                                                                                                                                                                                                                                                                                                                                                                                                                                                                                                                                                                                                                                                                                                                                                                                                                                                                                                                                                                                                                                                                                                                                                                                                                                                                                                                                                                                                                                                                                                                                                                                                                                                                                                                                                                                                                                                                                                                                                                                                                                                                                                                                                                                                                                                                                                                                                                                                                                                                                                                                                                                                                                                                                                                                                                                                                                                                                                                                                                                                                                                                                                                                                                                                                                                                                                                                                                                                                                                                                                                                                                                                                                                                                                                                                                                                                                                                                                                                                                                                                                                                                                                                                                                                                                                                                                                                                                                                                                                                                                                                                                                                                                                                                                                                                                                                                                                                                                                                                                                                                                                                                                                                                                                                                                                                                                                                                                                                                                                                                                                                                                                                                                                                                                                                                                                                                                                                                                                                                                                                                                                                                                                                                                                                                                                                                                                                                                                                                                                                                                                                                                                                                                                                                                                                                                                                                                                                                                                                                                                                                                                                                                                                                                                                                                                                                                                                                                                                                                                                                                                                                                                                                                                                                                                                                                                                                                                                                                                                                                                                                                                                                                                                                                                                                                                                                                                                                                                                                                                                                                                                                                                                                                                                                                                                                                                                                                                                                                                                                                                                                                                                                                                                                                                                                                                                                                                                                                                                                                                                                                                                                                                                                                                                                                                                                                                                                                                                                                                                                                                                                                                                                                                                                                                                                                                                                                                                                                                                                                                                                                                                                                                                                                                                                                                                                                                                                                                                                                                                                                                                                                                                                                                                                                                                                                                                                                                                                                                                                                                                                                                                                                                                                                                                                                                                                                                                                                                                                                                                                                                                                                                                                                                                                                                                                                                                                                                                                                                                                                                                                                                                                                                                                                                                                                                                                                                                                                                                                                                                                                                                                                                                                                                                                                                                                                                                                                                                                                                                                                                                                                                                                                                                                                                                                                                                                                                                                                                                                                                                                                                                                                                                                                                                                                                                                                                                                                                                                                                                                                                                                                                                                                                                                                                                                                                                                                                                                                                                                                                                                                                                                                                                                                                                                                                                                                                                                                                                                                                                                                                                                                                                                                                                                                                                                                                                                                                                                                                                                                                                                                                                                                                                                                                                                                                                                                                                                                                                                                                                                                                                                                                                                                                                                                                                                                                                                                                                                                                                                                                                                                                                                                                                                                                                                                                                                                                                                                                                                                                                                                                                                                                                                                                                                                                                                                                                                                                                                                                                                                                                                                                                                                                                                                                                                                                                                                                                                                                                                                                                                                                                                                                                                                                                                                                                                                                                                                                                                                                                                                                                                                                                                                                                                                                                                                                                                                                                                                                                                                                                                                                                                                                                                                                                                                                                                                                                                                                                                                                                                                                                                                                                                                                                                                                                                                                                                                                                                                                                                                                                                                                                                                                                                                                                                                                                                                                                                                                                                                                                                                                                                                                                                                                                                                                                                                                                                                                                                                                                                                                                                                                                                                                                                                                                                                                                                                                                                                                                                                                                                                                                                                                                                                                                                                                                                                                                                                                                                                                                                                                                                                                                                                                                                                                                                                                                                                                                                                                                                                                                                                                                                                                                                                                                                                                                                                                                                                                                                                                                                                                                                                                                                                                                                                                                                                                                                                                                                                                                                                                                                                                                                                                                                                                                                                                                                                                                                                                                                                                                                                                                                                                                                                                                                                                                                                                                                                                                                                                                                                                                                                                                                                                                                                                                                                                                                                                                                                                                                                                                                                                                                                                                                                                                                                                                                                                                                                                                                                                                                                                                                                                                                                                                                                                                                                                                                                                                                                                                                                                                                                                                                                                                                                                                                                                                                                                                                                                                                                                                                                                                                                                                                                                                                                                                                                                                                                                                                                                                                                                                                                                                                                                                                                                                                                                                                                                                                                                                                                                                                                                                                                                                                                                                                                                                                                                                                                                                                                                                                                                                                                                                                                                                                                                                                                                                                                                                                                                                                                                                                                                                                                                                                                                                                                                                                                                                                                                                                                                                                                                                                                                                                                                                                                                                                                                                                                                                                                                                                                                                                                                                                                                                                                                                                                                                                                                                                                                                                                                                                                                                                                                                                                                                                                                                                                                                                                                                                                                                                                                                                                                                                                                                                                                                                                                                                                                                                                                                                                                                                                                                                                                                                                                                                                                                                                                                                                                                                                                                                                                                                                                                                                                                                                                                                                                                                                                                                                                                                                                                                                                                                                                                                                                                                                                                                                                                                                                                                                                                                                                                                                                                                                                                                                                                                                                                                                                                                                                                                                                                                                                                                                                                                                                                                                                                                                                                                                                                                                                                                                                                                                                                                                                                                                                                                                                                                                                                                                                                                                                                                                                                                                                                                                                                                                                                                                                                                                                                                                                                                                                                                                                                                                                                                                                                                                                                                                                                                                                                                                                                                                                                                                                                                                                                                                                                                                                                                                                                                                                                                                                                                                                                                                                                                                                                                                                                                                                                                                                                                                                                                                                                                                                                                                                                                                                                                                                                                                                                                                                                                                                                                                                                                                                                                                                                                                                                                                                                                                                                                                                                                                                                                                                                                                                                                                                                                                                                                                                                                                                                                                                                                                                                                                                                                                                                                                                                                                                                                                                                                                                                                                                                                                                                                                                                                                                                                                                                                                                                                                                                                                                                                                                                                                                                                                                                                                                                                                                                                                                                                                                                                                                                                                                                                                                                                                                                                                                                                                                                                                                                                                                                                                                                                                                                                                                                                                                                                                                                                                                                                                                                                                                                                                                                                                                                                                                                                                                                                                                                                                                                                                                                                                                                                                                                                                                                                                                                                                                                                                                                                                                                                                                                                                                                                                                                                                                                                                                                                                                                                                                                                                                                                                                                                                                                                                                                                                                                                                                                                                                                                                                                                                                                                                                                                                                                                                                                                                                                                                                                                                                                                                                                                                                                                                                                                                                                                                                                                                                                                                                                                                                                                                                                                                                                                                                                                                                                                                                                                                                                                                                                                                                                                                                                                                                                                                                                                                                                                                                                                                                                                                                                                                                                                                                                                                                                                                                                                                                                                                                                                                                                                                                                                                                                                                                                                                                                                                                                                                                                                                                                                                                                                                                                                                                                                                                                                                                                                                                                                                                                                                                                                                                                                                                                                                                                                                                                                                                                                                                                                                                                                                                                                                                                                                                                                                                                                                                                                                                                                                                                                                                                                                                                                                                                                                                                                                                                                                                                                                                                                                                                                                                                                                                                                                                                                                                                                                                                                                                                                                                                                                                                                                                                                                                                                                                                                                                                                                                                                                                                                                                                                                                                                                                                                                                                                                                                                                                                                                                                                                                                                                                                                                                                                                                                                                                                                                                                                                                                                                                                                                                                                                                                                                                                                                                                                                                                                                                                                                                                                                                                                                                                                                                                                                                                                                                                                                                                                                                                                                                                                                                                                                                                                                                                                                                                                                                                                                                                                                                                                                                                                                                                                                                                                                                                                                                                                                                                                                                                                                                                                                                                                                                                                                                                                                                                                                                                                                                                                                                                                                                                                                                                                                                                                                                                                                                                                                                                                                                                                                                                                                                                                                                                                                                                                                                                                                                                                                                                                                                                                                                                                                                                                                                                                                                                                                                                                                                                                                                                                                                                                                                                                                                                                                                                                                                                                                                                                                                                                                                                                                                                                                                                                                                                                                                                                                                                                                                                                                                                                                                                                                                                                                                                                                                                                                                                                                                                                                                                                                                                                                                                                                                                                                                                                                                                                                                                                                                                                                                                                                                                                                                                                                                                                                                                                                                                                                                                                                                                                                                                                                                                                                                                                                                                                                                                                                                                                                                                                                                                                                                                                                                                                                                                                                                                                                                                                                                                                                                                                                                                                                                                                                                                                                                                                                                                                                                                                                                                                                                                                                                                                                                                                                                                                                                                                                                                                                                                                                                                                                                                                                                                                                                                                                                                                                                                                                                                                                                                                                                                                                                                                                                                                                                                                                                                                                                                                                                                                                                                                                                                                                                                                                                                                                                                                                                                                                                                                                                                                                                                                                                                                                                                                                                                                                                                                                                                                                                                                                                                                                                                                                                                                                                                                                                                                                                                                                                                                                                                                                                                                                                                                                                                                                                                                                                                                                                                                                                                                                                                                                                                                                                                                                                                                                                                                                                                                                                                                                                                                                                                                                                                                                                                                                                                                                                                                                       
[...]
	          D(5,7,2,11)     -82.74626        0.00000       -0.01162     -82.75788
	          D(5,7,9,10)     176.10081       -0.00000       -0.01112     176.08968
	          D(5,7,9,11)      -0.00000        0.00000        0.00000      -0.00000
	           D(6,5,2,7)     119.72086        0.00000       -0.00249     119.71837
	           D(6,5,2,9)     157.53152        0.00000        0.00292     157.53444
	          D(6,5,2,11)    -157.52781        0.00000        0.01337    -157.51445
	          D(6,5,3,11)     176.10442       -0.00000       -0.00943     176.09499
	           D(6,5,7,8)       0.00194       -0.00000       -0.00512      -0.00318
	           D(6,5,7,9)    -176.10451        0.00000        0.01050    -176.09401
	          D(7,2,1,13)       0.53280        0.00000       -0.00314       0.52966
	          D(7,2,1,15)      72.61209       -0.00000       -0.03787      72.57422
	          D(7,2,1,17)     144.64006       -0.00000       -0.04718     144.59287
	          D(7,2,1,19)    -143.42125       -0.00000       -0.01870    -143.43995
	          D(7,2,1,21)     -71.48716       -0.00000        0.00792     -71.47924
	          D(7,2,3,11)     -82.75499        0.00000       -0.01261     -82.76760
	          D(7,2,9,10)    -119.72732        0.00000       -0.00020    -119.72752
	          D(7,2,9,11)     120.55488        0.00000        0.01654     120.57142
	          D(7,2,11,9)     -37.81465       -0.00000       -0.00363     -37.81829
	         D(7,2,11,12)    -157.54681        0.00000        0.00995    -157.53686
	           D(7,5,2,9)      37.81066        0.00000        0.00541      37.81607
	          D(7,5,2,11)      82.75133        0.00000        0.01585      82.76718
	          D(7,5,3,11)      -0.00169        0.00000        0.00169       0.00000
	          D(7,9,2,11)    -120.55488       -0.00000       -0.01654    -120.57142
	         D(7,9,11,12)     176.09648       -0.00000       -0.00248     176.09400
	           D(8,7,2,9)     119.72101        0.00000       -0.00940     119.71161
	          D(8,7,2,11)     157.54120       -0.00000       -0.01021     157.53099
	          D(8,7,9,10)      -0.00500        0.00000        0.00417      -0.00083
	          D(8,7,9,11)    -176.10656        0.00000        0.01556    -176.09100
	          D(9,2,1,13)     -71.49391        0.00000        0.02220     -71.47171
	          D(9,2,1,15)       0.58538       -0.00000       -0.01253       0.57285
	          D(9,2,1,17)      72.61335       -0.00000       -0.02185      72.59150
	          D(9,2,1,19)     144.55204       -0.00000        0.00664     144.55868
	          D(9,2,1,21)    -143.51387        0.00000        0.03326    -143.48061
	          D(9,2,3,11)     -37.82150        0.00000        0.00353     -37.81797
	         D(9,2,11,12)    -119.73216        0.00000        0.01359    -119.71858
	          D(9,7,2,11)      37.82019       -0.00000       -0.00081      37.81938
	         D(10,9,2,11)     119.71780       -0.00000       -0.01674     119.70106
	        D(10,9,11,12)      -0.00500        0.00000        0.00804       0.00305
	         D(11,2,1,13)    -143.55520        0.00000        0.03541    -143.51979
	         D(11,2,1,15)     -71.47591        0.00000        0.00068     -71.47523
	         D(11,2,1,17)       0.55206       -0.00000       -0.00863       0.54342
	         D(11,2,1,19)      72.49075        0.00000        0.01985      72.51060
	         D(11,2,1,21)     144.42484        0.00000        0.04647     144.47131
	        D(13,1,15,16)     119.72655       -0.00000       -0.00218     119.72436
	        D(13,1,15,17)    -120.55225       -0.00000       -0.01777    -120.57001
	        D(13,1,17,15)      37.81854        0.00000        0.00217      37.82071
	        D(13,1,17,18)     157.54822       -0.00000       -0.01550     157.53272
	        D(13,1,17,19)     -82.73630       -0.00000       -0.02103     -82.75733
	        D(13,1,19,17)      82.75694       -0.00000        0.01113      82.76807
	        D(13,1,19,20)    -157.52439       -0.00000       -0.00435    -157.52874
	        D(13,1,19,21)     -37.80856       -0.00000       -0.00510     -37.81366
	        D(13,1,21,19)     120.56580       -0.00000        0.01431     120.58011
	        D(13,1,21,22)    -119.72103        0.00000        0.00683    -119.71421
	        D(13,15,1,17)     120.55225        0.00000        0.01777     120.57001
	        D(13,15,1,19)      82.73722        0.00000        0.02116      82.75839
	        D(13,15,1,21)      37.80933        0.00000        0.00646      37.81579
	       D(13,15,17,18)    -176.09110        0.00000        0.00122    -176.08987
	       D(13,15,17,19)      -0.00122        0.00000       -0.00010      -0.00132
	        D(13,21,1,15)     -37.81513       -0.00000       -0.00413     -37.81926
	        D(13,21,1,17)     -82.75470        0.00000       -0.01458     -82.76927
	        D(13,21,1,19)    -120.56580        0.00000       -0.01431    -120.58011
	       D(13,21,19,17)       0.00000        0.00000       -0.00108      -0.00108
	       D(13,21,19,20)     176.09881       -0.00000       -0.00411     176.09470
	        D(14,13,1,15)    -119.72019       -0.00000        0.01178    -119.70841
	        D(14,13,1,17)    -157.54052        0.00000        0.01306    -157.52747
	        D(14,13,1,19)     157.52562        0.00000        0.00260     157.52822
	        D(14,13,1,21)     119.71833        0.00000       -0.00009     119.71824
	       D(14,13,15,16)       0.01210       -0.00000       -0.00578       0.00632
	       D(14,13,15,17)     176.11215       -0.00000       -0.01735     176.09480
	       D(14,13,21,19)    -176.11233        0.00000        0.01848    -176.09384
	       D(14,13,21,22)      -0.00217        0.00000        0.00607       0.00390
	        D(15,1,13,21)     120.56147       -0.00000        0.01187     120.57335
	        D(15,1,17,18)     119.72968       -0.00000       -0.01767     119.71201
	        D(15,1,17,19)    -120.55484       -0.00000       -0.02320    -120.57804
	        D(15,1,19,17)      37.81951       -0.00000       -0.00356      37.81594
	        D(15,1,19,20)     157.53817       -0.00000       -0.01904     157.51913
	        D(15,1,19,21)     -82.74600       -0.00000       -0.01979     -82.76579
	        D(15,1,21,19)      82.75067       -0.00000        0.01018      82.76085
	        D(15,1,21,22)    -157.53617       -0.00000        0.00270    -157.53347
	        D(15,13,1,17)     -37.82033        0.00000        0.00128     -37.81905
	        D(15,13,1,19)     -82.75418        0.00000       -0.00918     -82.76337
	        D(15,13,1,21)    -120.56147        0.00000       -0.01187    -120.57335
	       D(15,13,21,19)      -0.00123        0.00000        0.00123       0.00000
	       D(15,13,21,22)     176.10893       -0.00000       -0.01093     176.09801
	        D(15,17,1,19)     120.55484        0.00000        0.02320     120.57804
	        D(15,17,1,21)      82.74811        0.00000        0.02027      82.76838
	       D(15,17,19,20)    -176.09743        0.00000        0.00289    -176.09454
	       D(15,17,19,21)       0.00000       -0.00000        0.00148       0.00148
	        D(16,15,1,17)    -119.72121        0.00000        0.01559    -119.70562
	        D(16,15,1,19)    -157.53623        0.00000        0.01898    -157.51725
	        D(16,15,1,21)     157.53588        0.00000        0.00427     157.54015
	       D(16,15,13,21)    -176.09854        0.00000        0.01072    -176.08783
	       D(16,15,17,18)       0.00901       -0.00000       -0.00901      -0.00000
	       D(16,15,17,19)     176.09889       -0.00000       -0.01100     176.08789
	        D(17,1,13,21)      82.74114       -0.00000        0.01315      82.75429
	        D(17,1,19,20)     119.71867       -0.00000       -0.01548     119.70318
	        D(17,1,19,21)    -120.56551       -0.00000       -0.01623    -120.58174
	        D(17,1,21,19)      37.81111       -0.00000       -0.00027      37.81084
	        D(17,1,21,22)     157.52427        0.00000       -0.00775     157.51652
	        D(17,15,1,19)     -37.81502        0.00000        0.00339     -37.81163
	        D(17,15,1,21)     -82.74291        0.00000       -0.01131     -82.75423
	       D(17,15,13,21)       0.00151       -0.00000       -0.00151       0.00000
	        D(17,19,1,21)     120.56551        0.00000        0.01623     120.58174
	       D(17,19,21,22)    -176.11004        0.00000        0.01069    -176.09935
	        D(18,17,1,19)    -119.71548        0.00000        0.00553    -119.70995
	        D(18,17,1,21)    -157.52221        0.00000        0.00260    -157.51960
	       D(18,17,19,20)      -0.00671        0.00000        0.00114      -0.00557
	       D(18,17,19,21)     176.09117       -0.00000       -0.00072     176.09045
	        D(19,1,13,21)      37.80729        0.00000        0.00269      37.80998
	        D(19,1,21,22)     119.71317        0.00000       -0.00748     119.70568
	        D(19,17,1,21)     -37.80672       -0.00000       -0.00293     -37.80965
	        D(20,19,1,21)    -119.71583        0.00000        0.00075    -119.71508
	       D(20,19,21,22)      -0.01171        0.00000        0.00814      -0.00357
	-------------------------------------------------------------------------------

	                                 ==> Convergence Check <==                                  
    
	Measures of convergence in internal coordinates in au.
    
	Criteria marked as inactive (o), active & met (*), and active & unmet ( ).

	----------------------------------------------------------------------------------------------
	   Step    Total Energy     Delta E     Max Force     RMS Force      Max Disp      RMS Disp   
	----------------------------------------------------------------------------------------------
	  Convergence Criteria     1.00e-06 *    3.00e-04 *             o    1.20e-03 *             o
	----------------------------------------------------------------------------------------------
	     4    -416.62362665   -2.25e-05      2.04e-04 *    4.39e-05 o    2.58e-03      5.29e-04 o  ~
	----------------------------------------------------------------------------------------------

Next Geometry in Ang 
	Fragment 1 (Ang)

	   Be  -0.9151075326   0.0113837222  -0.4722727190
	   Be   0.9153659088  -0.0122673210   0.4717592743
	    C   1.7286697814   0.1137283326   2.2393394367
	    H   1.1868911357   0.2417071313   3.1633581328
	    C   2.1805841381   1.1547397658   1.3881273352
	    H   2.0420935310   2.2118491718   1.5524635684
	    C   2.7650215490   0.5599489318   0.2403438636
	    H   3.1481311081   1.0862524460  -0.6198129812
	    C   2.6742428533  -0.8487551453   0.3823035830
	    H   2.9762910195  -1.5798765668  -0.3510980538
	    C   2.0337383754  -1.1244263677   1.6177795243
	    H   1.7641748186  -2.1014839445   1.9870848476
	    C  -1.7856327736   0.6084829050  -2.1115746142
	    H  -1.2946817812   1.1248177273  -2.9215212871
	    C  -1.8826984970  -0.7986204098  -1.9584467649
	    H  -1.4783413611  -1.5382268239  -2.6316027715
	    C  -2.5239429918  -1.0616442055  -0.7206278767
	    H  -2.6919133190  -2.0359142057  -0.2890308306
	    C  -2.8231672251   0.1827239005  -0.1087188913
	    H  -3.2582580312   0.3190323277   0.8689401620
	    C  -2.3669214733   1.2149634914  -0.9682976080
	    H  -2.3948716933   2.2725880983  -0.7578089616


    Structure for next step:
    Molecular point group: c1
    Full point group: C1

    Geometry (in Angstrom), charge = 0, multiplicity = 1:

    BE          -0.915111347583     0.011339952366    -0.472266561290
    BE           0.915362093832    -0.012311090811     0.471765432087
    C            1.728665966413     0.113684562812     2.239345594472
    H            1.186887320752     0.241663361441     3.163364290556
    C            2.180580323118     1.154695995964     1.388133492897
    H            2.042089716059     2.211805401945     1.552469726104
    C            2.765017734094     0.559905161972     0.240350021326
    H            3.148127293135     1.086208676201    -0.619806823427
    C            2.674239038372    -0.848798915134     0.382309740722
    H            2.976287204505    -1.579920336601    -0.351091896042
    C            2.033734560410    -1.124470137505     1.617785681994
    H            1.764171003602    -2.101527714302     1.987091005382
    C           -1.785636588570     0.608439135207    -2.111568456489
    H           -1.294685596201     1.124773957510    -2.921515129331
    C           -1.882702311950    -0.798664179664    -1.958440607169
    H           -1.478345176055    -1.538270593760    -2.631596613797
    C           -2.523946806796    -1.061687975308    -0.720621718987
    H           -2.691917133982    -2.035957975484    -0.289024672899
    C           -2.823171040065     0.182680130633    -0.108712733516
    H           -3.258261846188     0.318988557819     0.868946319725
    C           -2.366925288206     1.214919721586    -0.968291450307
    H           -2.394875508235     2.272544328461    -0.757802803888


Scratch directory: /tmp/931330.30.gen4.q/
gradient() will perform analytic gradient computation.
   => Libint2 <=

    Primary   basis highest AM E, G, H:  5, 4, 3
    Auxiliary basis highest AM E, G, H:  6, 5, 4
    Onebody   basis highest AM E, G, H:  6, 5, 4
    Solid Harmonics ordering:            gaussian

*** tstart() called on n054
*** at Mon Aug 28 10:07:18 2023

   => Loading Basis Set <=

    Name: CC-PVTZ
    Role: ORBITAL
    Keyword: BASIS
    atoms 1-2                                 entry BE         line   102 file /opt/psi/4/1.9a/share/psi4/basis/cc-pvtz.gbs 
    atoms 3, 5, 7, 9, 11, 13, 15, 17, 19, 21  entry C          line   186 file /opt/psi/4/1.9a/share/psi4/basis/cc-pvtz.gbs 
    atoms 4, 6, 8, 10, 12, 14, 16, 18, 20, 22 entry H          line    23 file /opt/psi/4/1.9a/share/psi4/basis/cc-pvtz.gbs 


         ---------------------------------------------------------
                                   SCF
               by Justin Turney, Rob Parrish, Andy Simmonett
                          and Daniel G. A. Smith
                              RKS Reference
                        4 Threads,    500 MiB Core
         ---------------------------------------------------------

  ==> Geometry <==

    Molecular point group: c1
    Full point group: C1

    Geometry (in Angstrom), charge = 0, multiplicity = 1:

       Center              X                  Y                   Z               Mass       
    ------------   -----------------  -----------------  -----------------  -----------------
         BE          -0.915111347583     0.011339952366    -0.472266561290     9.012183065000
         BE           0.915362093832    -0.012311090811     0.471765432087     9.012183065000
         C            1.728665966413     0.113684562812     2.239345594472    12.000000000000
         H            1.186887320752     0.241663361441     3.163364290556     1.007825032230
         C            2.180580323118     1.154695995964     1.388133492897    12.000000000000
         H            2.042089716059     2.211805401945     1.552469726104     1.007825032230
         C            2.765017734094     0.559905161972     0.240350021326    12.000000000000
         H            3.148127293135     1.086208676201    -0.619806823427     1.007825032230
         C            2.674239038372    -0.848798915134     0.382309740722    12.000000000000
         H            2.976287204505    -1.579920336601    -0.351091896042     1.007825032230
         C            2.033734560410    -1.124470137505     1.617785681994    12.000000000000
         H            1.764171003602    -2.101527714302     1.987091005382     1.007825032230
         C           -1.785636588570     0.608439135207    -2.111568456489    12.000000000000
         H           -1.294685596201     1.124773957510    -2.921515129331     1.007825032230
         C           -1.882702311950    -0.798664179664    -1.958440607169    12.000000000000
         H           -1.478345176055    -1.538270593760    -2.631596613797     1.007825032230
         C           -2.523946806796    -1.061687975308    -0.720621718987    12.000000000000
         H           -2.691917133982    -2.035957975484    -0.289024672899     1.007825032230
         C           -2.823171040065     0.182680130633    -0.108712733516    12.000000000000
         H           -3.258261846188     0.318988557819     0.868946319725     1.007825032230
         C           -2.366925288206     1.214919721586    -0.968291450307    12.000000000000
         H           -2.394875508235     2.272544328461    -0.757802803888     1.007825032230

  Running in c1 symmetry.

  Rotational constants: A =      0.07415  B =      0.01715  C =      0.01715 [cm^-1]
  Rotational constants: A =   2223.08759  B =    514.06404  C =    514.06333 [MHz]
  Nuclear repulsion =  531.711027468851739

  Charge       = 0
  Multiplicity = 1
  Electrons    = 78
  Nalpha       = 39
  Nbeta        = 39

  ==> Algorithm <==

  SCF Algorithm Type is DF.
  DIIS enabled.
  MOM disabled.
  Fractional occupation disabled.
  Guess Type is READ.
  Energy threshold   = 1.00e-08
  Density threshold  = 1.00e-08
  Integral threshold = 1.00e-12

  ==> Primary Basis <==

  Basis Set: CC-PVTZ
    Blend: CC-PVTZ
    Number of shells: 180
    Number of basis functions: 500
    Number of Cartesian functions: 570
    Spherical Harmonics?: true
    Max angular momentum: 3

  ==> DFT Potential <==

   => LibXC <=

    Version 6.1.0
    S. Lehtola, C. Steigemann, M. J.T. Oliveira, and M. A.L. Marques.,  SoftwareX 7, 1–5 (2018) (10.1016/j.softx.2017.11.002)

   => Composite Functional: B97-1 <= 

    B97-1 Hyb-GGA Exchange-Correlation Functional

    F. A. Hamprecht, A. J. Cohen, D. J. Tozer, and N. C. Handy.,  J. Chem. Phys. 109, 6264 (1998) (10.1063/1.477267)

    Deriv               =              1
    GGA                 =           TRUE
    Meta                =          FALSE

    Exchange Hybrid     =           TRUE
    MP2 Hybrid          =          FALSE

   => Exchange-Correlation Functionals <=

    1.0000       Becke 97-1

   => Exact (HF) Exchange <=

    0.2100               HF 

   => LibXC Density Thresholds  <==

    XC_HYB_GGA_XC_B97_1:  1.00E-14 

   => Molecular Quadrature <=

    Radial Scheme          =       TREUTLER
    Pruning Scheme         =           NONE
    Nuclear Scheme         =       TREUTLER

    Blocking Scheme        =         OCTREE
    BS radius alpha        =              1
    Pruning alpha          =              1
    Radial Points          =             75
    Spherical Points       =            302
    Total Points           =         459120
    Total Blocks           =           3369
    Max Points             =            256
    Max Functions          =            429
    Weights Tolerance      =       1.00E-15

   => Loading Basis Set <=

    Name: (CC-PVTZ AUX)
    Role: JKFIT
    Keyword: DF_BASIS_SCF
    atoms 1-2                                 entry BE         line    96 file /opt/psi/4/1.9a/share/psi4/basis/def2-universal-jkfit.gbs 
    atoms 3, 5, 7, 9, 11, 13, 15, 17, 19, 21  entry C          line   125 file /opt/psi/4/1.9a/share/psi4/basis/cc-pvtz-jkfit.gbs 
    atoms 4, 6, 8, 10, 12, 14, 16, 18, 20, 22 entry H          line    51 file /opt/psi/4/1.9a/share/psi4/basis/cc-pvtz-jkfit.gbs 

   => Loading Basis Set <=

    Name: CC-PVTZ
    Role: ORBITAL
    Keyword: BASIS
    atoms 1-2                                 entry BE         line   102 file /opt/psi/4/1.9a/share/psi4/basis/cc-pvtz.gbs 
    atoms 3, 5, 7, 9, 11, 13, 15, 17, 19, 21  entry C          line   186 file /opt/psi/4/1.9a/share/psi4/basis/cc-pvtz.gbs 
    atoms 4, 6, 8, 10, 12, 14, 16, 18, 20, 22 entry H          line    23 file /opt/psi/4/1.9a/share/psi4/basis/cc-pvtz.gbs 

  Reading orbitals from file /tmp/931330.30.gen4.q/be_bond_compare.default.27403.180.npy, no projection.

  ==> Integral Setup <==

