
    -----------------------------------------------------------------------
          Psi4: An Open-Source Ab Initio Electronic Structure Package
                               Psi4 1.9a1.dev12 

                         Git: Rev {master} 6ebe472 dirty


    D. G. A. Smith, L. A. Burns, A. C. Simmonett, R. M. Parrish,
    M. C. Schieber, R. Galvelis, P. Kraus, H. Kruse, R. Di Remigio,
    A. Alenaizan, A. M. James, S. Lehtola, J. P. Misiewicz, M. Scheurer,
    R. A. Shaw, J. B. Schriber, Y. Xie, Z. L. Glick, D. A. Sirianni,
    J. S. O'Brien, J. M. Waldrop, A. Kumar, E. G. Hohenstein,
    B. P. Pritchard, B. R. Brooks, H. F. Schaefer III, A. Yu. Sokolov,
    K. Patkowski, A. E. DePrince III, U. Bozkaya, R. A. King,
    F. A. Evangelista, J. M. Turney, T. D. Crawford, C. D. Sherrill,
    J. Chem. Phys. 152(18) 184108 (2020). https://doi.org/10.1063/5.0006002

                            Additional Code Authors
    E. T. Seidl, C. L. Janssen, E. F. Valeev, M. L. Leininger,
    J. F. Gonthier, R. M. Richard, H. R. McAlexander, M. Saitow, X. Wang,
    P. Verma, M. H. Lechner, A. Jiang, S. Behnle, A. G. Heide,
    M. F. Herbst, and D. L. Poole

             Previous Authors, Complete List of Code Contributors,
                       and Citations for Specific Modules
    https://github.com/psi4/psi4/blob/master/codemeta.json
    https://github.com/psi4/psi4/graphs/contributors
    http://psicode.org/psi4manual/master/introduction.html#citing-psifour

    -----------------------------------------------------------------------


    Psi4 started on: Thursday, 24 August 2023 03:52AM

    Process ID: 1963
    Host:       n039
    PSIDATADIR: /opt/psi/4/1.9a/share/psi4
    Memory:     500.0 MiB
    Threads:    4
    
  ==> Input File <==

--------------------------------------------------------------------------
import os

set reference rhf

import numpy as np
import pickle
import time

print(os.environ["SGE_TASK_ID"])

dist_mgmg = np.linspace(1.9, 3.5, 10)[int(os.environ["SGE_TASK_ID"]) - 1]


mgcp = geometry(f""" 
    0 1
    symmetry c1
    units angstrom

    C
    C 1 dcc
    C 2 dcc 1 108
    C 3 dcc 2 108 1 0
    C 4 dcc 3 108 2 0
    C 1 drr 2 90  3 90
    C 2 drr 3 90  4 90
    C 3 drr 4 90  5 90
    C 8 dcc 7 108 6 0
    C 9 dcc 8 108 7 0
    H 1 dch 2 126 3 180
    H 2 dch 3 126 4 180
    H 3 dch 4 126 5 180
    H 4 dch 5 126 1 180
    H 5 dch 1 126 2 180
    H 6 dch 7 126 8 180
    H 7 dch 8 126 9 180
    H 8 dch 9 126 10 180
    H 9 dch 10 126 6 180
    H 10 dch 6 126 7 180
    Mg 1 dcbe 11 achbe 6 0
    Mg 6 dcbe 16 achbe 1 0

    dcc = 1.40748
    drr = {dist_mgmg + 2 * 1.881055}
    dch = 1.07749
    dcbe = 2.23403
    achbe = 128.09660

""")

set optking {
    frozen_distance = ("
       21 22 
    ")
}

energy = optimize("mp2/cc-pVDZ")

mgcp.save_xyz_file("out/structs/dimgce_mgmg-" + str(os.environ["SGE_TASK_ID"]) + ".xyz", True)

fstr = ""
with open("out/structs/dimgce_mgmg-" + str(os.environ["SGE_TASK_ID"]) + ".xyz", "r") as fp :
    for line in fp :
        if len(line) == 0 :
            continue
        newline = line[0]
        for i in range(1, len(line)) :
            if line[i - 1].isupper() and line[i].isupper() :
                newline += line[i].lower()
            else :
                newline += line[i]
        fstr += newline
with open("out/structs/dimgce_mgmg-" + str(os.environ["SGE_TASK_ID"]) + ".xyz", "w") as fp :
    print(fstr, file = fp)

while os.path.isfile("out/lock.dimgce_mgmg_energies.dat") :
    time.sleep(0.03)
with open("out/lock.dimgce_mgmg_energies.dat", "w+") as _ :
    with open("out/dimgce_mgmg_energies.dat", "ba+") as fp :
        fp.write(pickle.dumps(dist_mgmg))
        fp.write(pickle.dumps(energy))
os.remove("out/lock.dimgce_mgmg_energies.dat")

while os.path.isfile("out/lock.dimgce_mgmg_energies.txt") :
    time.sleep(0.03)

with open("out/lock.dimgce_mgmg_energies.txt", "w+") as _ :
    with open("out/dimgce_mgmg_energies.txt", "a+") as fp :
        print(f"Distance: {dist_mgmg}, Energy: {energy}", file = fp)
os.remove("out/lock.dimgce_mgmg_energies.txt")
--------------------------------------------------------------------------

Scratch directory: /tmp/929720.10.gen4.q/
gradient() will perform analytic gradient computation.
    SCF Algorithm Type (re)set to DF.
   => Libint2 <=

    Primary   basis highest AM E, G, H:  5, 4, 3
    Auxiliary basis highest AM E, G, H:  6, 5, 4
    Onebody   basis highest AM E, G, H:  6, 5, 4
    Solid Harmonics ordering:            gaussian

*** tstart() called on n039
*** at Thu Aug 24 03:52:30 2023

   => Loading Basis Set <=

    Name: CC-PVDZ
    Role: ORBITAL
    Keyword: BASIS
    atoms 1-10  entry C          line   138 file /opt/psi/4/1.9a/share/psi4/basis/cc-pvdz.gbs 
    atoms 11-20 entry H          line    22 file /opt/psi/4/1.9a/share/psi4/basis/cc-pvdz.gbs 
    atoms 21-22 entry MG         line   353 file /opt/psi/4/1.9a/share/psi4/basis/cc-pvdz.gbs 


         ---------------------------------------------------------
                                   SCF
               by Justin Turney, Rob Parrish, Andy Simmonett
                          and Daniel G. A. Smith
                              RHF Reference
                        4 Threads,    500 MiB Core
         ---------------------------------------------------------

  ==> Geometry <==

    Molecular point group: c1
    Full point group: C2v

    Geometry (in Angstrom), charge = 0, multiplicity = 1:

       Center              X                  Y                   Z               Mass       
    ------------   -----------------  -----------------  -----------------  -----------------
         C            3.631055000000     0.000000000000     1.246065818292    12.000000000000
         C            3.631055000000    -1.138675239243     0.418769831395    12.000000000000
         C            3.631055000000    -0.703740000000    -0.919823194160    12.000000000000
         C            3.631055000000     0.703740000000    -0.919823194160    12.000000000000
         C            3.631055000000     1.138675239243     0.418769831395    12.000000000000
         C           -3.631055000000     0.000000000000     1.246065818292    12.000000000000
         C           -3.631055000000    -1.138675239243     0.418769831395    12.000000000000
         C           -3.631055000000    -0.703740000000    -0.919823194160    12.000000000000
         C           -3.631055000000     0.703740000000    -0.919823194160    12.000000000000
         C           -3.631055000000     1.138675239243     0.418769831395    12.000000000000
         H            3.631055000000     0.000000000000     2.323555818292     1.007825032230
         H            3.631055000000    -2.163429124986     0.751732552664     1.007825032230
         H            3.631055000000    -1.337072731493    -1.791530915429     1.007825032230
         H            3.631055000000     1.337072731493    -1.791530915429     1.007825032230
         H            3.631055000000     2.163429124986     0.751732552664     1.007825032230
         H           -3.631055000000     0.000000000000     2.323555818292     1.007825032230
         H           -3.631055000000    -2.163429124986     0.751732552664     1.007825032230
         H           -3.631055000000    -1.337072731493    -1.791530915429     1.007825032230
         H           -3.631055000000     1.337072731493    -1.791530915429     1.007825032230
         H           -3.631055000000     2.163429124986     0.751732552664     1.007825032230
         MG           1.872936755532     0.000000000000    -0.132306511439    23.985041697000
         MG          -1.872936755532     0.000000000000    -0.132306511439    23.985041697000

  Running in c1 symmetry.

  Rotational constants: A =      0.07482  B =      0.00845  C =      0.00844 [cm^-1]
  Rotational constants: A =   2242.98264  B =    253.27437  C =    253.12857 [MHz]
  Nuclear repulsion =  685.111743567549411

  Charge       = 0
  Multiplicity = 1
  Electrons    = 94
  Nalpha       = 47
  Nbeta        = 47

  ==> Algorithm <==

  SCF Algorithm Type is DF.
  DIIS enabled.
  MOM disabled.
  Fractional occupation disabled.
  Guess Type is SAD.
  Energy threshold   = 1.00e-10
  Density threshold  = 1.00e-10
  Integral threshold = 1.00e-12

  ==> Primary Basis <==

  Basis Set: CC-PVDZ
    Blend: CC-PVDZ
    Number of shells: 106
    Number of basis functions: 226
    Number of Cartesian functions: 238
    Spherical Harmonics?: true
    Max angular momentum: 2

   => Loading Basis Set <=

    Name: (CC-PVDZ AUX)
    Role: JKFIT
    Keyword: DF_BASIS_SCF
    atoms 1-10  entry C          line   121 file /opt/psi/4/1.9a/share/psi4/basis/cc-pvdz-jkfit.gbs 
    atoms 11-20 entry H          line    51 file /opt/psi/4/1.9a/share/psi4/basis/cc-pvdz-jkfit.gbs 
    atoms 21-22 entry MG         line   576 file /opt/psi/4/1.9a/share/psi4/basis/def2-universal-jkfit.gbs 

  ==> Integral Setup <==

  ==> DiskDFJK: Density-Fitted J/K Matrices <==

    J tasked:                  Yes
    K tasked:                  Yes
    wK tasked:                  No
    OpenMP threads:              4
    Integrals threads:           4
    Memory [MiB]:              375
    Algorithm:                Core
    Integral Cache:           NONE
    Schwarz Cutoff:          1E-12
    Fitting Condition:       1E-10

   => Auxiliary Basis Set <=

  Basis Set: (CC-PVDZ AUX)
    Blend: CC-PVDZ-JKFIT + DEF2-UNIVERSAL-JKFIT
    Number of shells: 398
    Number of basis functions: 1154
    Number of Cartesian functions: 1334
    Spherical Harmonics?: true
    Max angular momentum: 4

  Minimum eigenvalue in the overlap matrix is 9.5905263617E-04.
  Reciprocal condition number of the overlap matrix is 1.2754282148E-04.
    Using symmetric orthogonalization.

  ==> Pre-Iterations <==

  SCF Guess: Superposition of Atomic Densities via on-the-fly atomic UHF (no occupation information).

   -------------------------
    Irrep   Nso     Nmo    
   -------------------------
     A        226     226 
   -------------------------
    Total     226     226
   -------------------------

  ==> Iterations <==

                           Total Energy        Delta E     RMS |[F,P]|

   @DF-RHF iter SAD:  -784.25249183898973   -7.84252e+02   0.00000e+00 
   @DF-RHF iter   1:  -783.36628050144395    8.86211e-01   3.22541e-03 ADIIS/DIIS
   @DF-RHF iter   2:  -783.60904307033456   -2.42763e-01   1.78923e-03 ADIIS/DIIS
   @DF-RHF iter   3:  -783.69145783007502   -8.24148e-02   2.29453e-04 ADIIS/DIIS
   @DF-RHF iter   4:  -783.69397836028315   -2.52053e-03   3.75065e-05 DIIS
   @DF-RHF iter   5:  -783.69403428497640   -5.59247e-05   1.22778e-05 DIIS
   @DF-RHF iter   6:  -783.69404057132465   -6.28635e-06   3.58819e-06 DIIS
   @DF-RHF iter   7:  -783.69404111949120   -5.48167e-07   1.17656e-06 DIIS
   @DF-RHF iter   8:  -783.69404119206433   -7.25731e-08   2.14490e-07 DIIS
   @DF-RHF iter   9:  -783.69404119780415   -5.73982e-09   5.07956e-08 DIIS
   @DF-RHF iter  10:  -783.69404119813657   -3.32420e-10   1.03935e-08 DIIS
   @DF-RHF iter  11:  -783.69404119815295   -1.63709e-11   3.33186e-09 DIIS
   @DF-RHF iter  12:  -783.69404119815431   -1.36424e-12   1.27348e-09 DIIS
   @DF-RHF iter  13:  -783.69404119815454   -2.27374e-13   4.97904e-10 DIIS
   @DF-RHF iter  14:  -783.69404119815476   -2.27374e-13   1.42074e-10 DIIS
   @DF-RHF iter  15:  -783.69404119815408    6.82121e-13   4.83732e-11 DIIS
  Energy and wave function converged.


  ==> Post-Iterations <==

    Orbital Energies [Eh]
    ---------------------

    Doubly Occupied:                                                      

       1A    -48.999819     2A    -48.999819     3A    -11.236881  
       4A    -11.236881     5A    -11.235739     6A    -11.235739  
       7A    -11.235235     8A    -11.235235     9A    -11.233243  
      10A    -11.233243    11A    -11.232173    12A    -11.232173  
      13A     -3.748668    14A     -3.748658    15A     -2.270260  
      16A     -2.270180    17A     -2.268242    18A     -2.268212  
      19A     -2.268130    20A     -2.268097    21A     -1.196622  
      22A     -1.196609    23A     -0.974811    24A     -0.974795  
      25A     -0.974468    26A     -0.974452    27A     -0.747234  
      28A     -0.747232    29A     -0.746942    30A     -0.746940  
      31A     -0.718030    32A     -0.718020    33A     -0.561529  
      34A     -0.560929    35A     -0.559498    36A     -0.559468  
      37A     -0.558278    38A     -0.557678    39A     -0.532629  
      40A     -0.532629    41A     -0.531671    42A     -0.531671  
      43A     -0.335923    44A     -0.335827    45A     -0.335231  
      46A     -0.335131    47A     -0.203239  

    Virtual:                                                              

      48A      0.076972    49A      0.077194    50A      0.087630  
      51A      0.148968    52A      0.149350    53A      0.160270  
      54A      0.177029    55A      0.181400    56A      0.181797  
      57A      0.190964    58A      0.191380    59A      0.222434  
      60A      0.241531    61A      0.243755    62A      0.249181  
      63A      0.249488    64A      0.250036    65A      0.250126  
      66A      0.252317    67A      0.260329    68A      0.277396  
      69A      0.278424    70A      0.344154    71A      0.349446  
      72A      0.350691    73A      0.379056    74A      0.379382  
      75A      0.391174    76A      0.391217    77A      0.407594  
      78A      0.408272    79A      0.447338    80A      0.448008  
      81A      0.450057    82A      0.450358    83A      0.461034  
      84A      0.523362    85A      0.542877    86A      0.546801  
      87A      0.556951    88A      0.561881    89A      0.563135  
      90A      0.566969    91A      0.578523    92A      0.597088  
      93A      0.599858    94A      0.616276    95A      0.623176  
      96A      0.623178    97A      0.688561    98A      0.701277  
      99A      0.752327   100A      0.755378   101A      0.760349  
     102A      0.764109   103A      0.787516   104A      0.789772  
     105A      0.826584   106A      0.827003   107A      0.833243  
     108A      0.833518   109A      0.847154   110A      0.848385  
     111A      0.849970   112A      0.851586   113A      0.863511  
     114A      0.863680   115A      0.897382   116A      0.912932  
     117A      0.926005   118A      0.929723   119A      0.937868  
     120A      0.939882   121A      0.961412   122A      0.965436  
     123A      0.965896   124A      0.974478   125A      0.977129  
     126A      1.008238   127A      1.040290   128A      1.040293  
     129A      1.099365   130A      1.143470   131A      1.169510  
     132A      1.171980   133A      1.174383   134A      1.184210  
     135A      1.207098   136A      1.207561   137A      1.218595  
     138A      1.219736   139A      1.277842   140A      1.277867  
     141A      1.278141   142A      1.278413   143A      1.287029  
     144A      1.288944   145A      1.301965   146A      1.304620  
     147A      1.504005   148A      1.505862   149A      1.556979  
     150A      1.560356   151A      1.561054   152A      1.565083  
     153A      1.616770   154A      1.630461   155A      1.645833  
     156A      1.660539   157A      1.739758   158A      1.740093  
     159A      1.746641   160A      1.747127   161A      1.783065  
     162A      1.808087   163A      1.849388   164A      1.854031  
     165A      1.856575   166A      1.860243   167A      1.883514  
     168A      1.883742   169A      1.883794   170A      1.884060  
     171A      1.912850   172A      1.928557   173A      1.940172  
     174A      1.940909   175A      1.941618   176A      1.941935  
     177A      2.023071   178A      2.023907   179A      2.032167  
     180A      2.032222   181A      2.033659   182A      2.062406  
     183A      2.070873   184A      2.076363   185A      2.076667  
     186A      2.094195   187A      2.130432   188A      2.130436  
     189A      2.159555   190A      2.160221   191A      2.162255  
     192A      2.163220   193A      2.262334   194A      2.262858  
     195A      2.267383   196A      2.268131   197A      2.326623  
     198A      2.326623   199A      2.336438   200A      2.337643  
     201A      2.348250   202A      2.350407   203A      2.458088  
     204A      2.458326   205A      2.462692   206A      2.462861  
     207A      2.720305   208A      2.721901   209A      2.724351  
     210A      2.726591   211A      2.732469   212A      2.732865  
     213A      2.892060   214A      2.892471   215A      2.895119  
     216A      2.895426   217A      2.983293   218A      2.983295  
     219A      2.999585   220A      2.999824   221A      3.002176  
     222A      3.002472   223A      3.645702   224A      3.647161  
     225A      3.656091   226A      3.658464  

    Final Occupation by Irrep:
              A 
    DOCC [    47 ]
    NA   [    47 ]
    NB   [    47 ]

  @DF-RHF Final Energy:  -783.69404119815408

   => Energetics <=

    Nuclear Repulsion Energy =            685.1117435675494107
    One-Electron Energy =               -2439.2033364774865731
    Two-Electron Energy =                 970.3975517117830805
    Total Energy =                       -783.6940411981540819

Computation Completed


Properties will be evaluated at   0.000000,   0.000000,   0.000000 [a0]

Properties computed using the SCF density matrix


 Multipole Moments:

 ------------------------------------------------------------------------------------
     Multipole            Electronic (a.u.)      Nuclear  (a.u.)        Total (a.u.)
 ------------------------------------------------------------------------------------

 L = 1.  Multiply by 2.5417464519 to convert [e a0] to [Debye]
 Dipole X            :         -0.0000000           -0.0000000           -0.0000000
 Dipole Y            :         -0.0000000           -0.0000000           -0.0000000
 Dipole Z            :         -0.4626386            0.4536685           -0.0089701
 Magnitude           :                                                    0.0089701

 ------------------------------------------------------------------------------------

*** tstop() called on n039 at Thu Aug 24 03:52:40 2023
Module time:
	user time   =      30.41 seconds =       0.51 minutes
	system time =       0.46 seconds =       0.01 minutes
	total time  =         10 seconds =       0.17 minutes
Total time:
	user time   =      30.41 seconds =       0.51 minutes
	system time =       0.46 seconds =       0.01 minutes
	total time  =         10 seconds =       0.17 minutes

*** tstart() called on n039
*** at Thu Aug 24 03:52:40 2023


  //>>>>>>>>>>>>>>>>>>>>>>>>>>>>>>>>>>>//
  //               DFMP2               //
  //<<<<<<<<<<<<<<<<<<<<<<<<<<<<<<<<<<<//

   => Loading Basis Set <=

    Name: (CC-PVDZ AUX)
    Role: RIFIT
    Keyword: DF_BASIS_MP2
    atoms 1-10  entry C          line   159 file /opt/psi/4/1.9a/share/psi4/basis/cc-pvdz-ri.gbs 
    atoms 11-20 entry H          line    19 file /opt/psi/4/1.9a/share/psi4/basis/cc-pvdz-ri.gbs 
    atoms 21-22 entry MG         line   399 file /opt/psi/4/1.9a/share/psi4/basis/cc-pvdz-ri.gbs 

	 --------------------------------------------------------
	                          DF-MP2                         
	      2nd-Order Density-Fitted Moller-Plesset Theory     
	              RMP2 Wavefunction,   4 Threads             
	                                                         
	        Rob Parrish, Justin Turney, Andy Simmonett,      
	           Ed Hohenstein, and C. David Sherrill          
	 --------------------------------------------------------

   => Auxiliary Basis Set <=

  Basis Set: (CC-PVDZ AUX)
    Blend: CC-PVDZ-RI
    Number of shells: 288
    Number of basis functions: 852
    Number of Cartesian functions: 990
    Spherical Harmonics?: true
    Max angular momentum: 3

	 --------------------------------------------------------
	                 NBF =   226, NAUX =   852
	 --------------------------------------------------------
	   CLASS    FOCC     OCC    AOCC    AVIR     VIR    FVIR
	   PAIRS       0      47      47     179     179       0
	 --------------------------------------------------------


         ------------------------------------------------------------
                                     CPHF                           
                                  Rob Parrish                       
         ------------------------------------------------------------

  ==> Geometry <==

    Molecular point group: c1
    Full point group: C2v

    Geometry (in Angstrom), charge = 0, multiplicity = 1:

       Center              X                  Y                   Z               Mass       
    ------------   -----------------  -----------------  -----------------  -----------------
         C            3.631055000000     0.000000000000     1.246065818292    12.000000000000
         C            3.631055000000    -1.138675239243     0.418769831395    12.000000000000
         C            3.631055000000    -0.703740000000    -0.919823194160    12.000000000000
         C            3.631055000000     0.703740000000    -0.919823194160    12.000000000000
         C            3.631055000000     1.138675239243     0.418769831395    12.000000000000
         C           -3.631055000000     0.000000000000     1.246065818292    12.000000000000
         C           -3.631055000000    -1.138675239243     0.418769831395    12.000000000000
         C           -3.631055000000    -0.703740000000    -0.919823194160    12.000000000000
         C           -3.631055000000     0.703740000000    -0.919823194160    12.000000000000
         C           -3.631055000000     1.138675239243     0.418769831395    12.000000000000
         H            3.631055000000     0.000000000000     2.323555818292     1.007825032230
         H            3.631055000000    -2.163429124986     0.751732552664     1.007825032230
         H            3.631055000000    -1.337072731493    -1.791530915429     1.007825032230
         H            3.631055000000     1.337072731493    -1.791530915429     1.007825032230
         H            3.631055000000     2.163429124986     0.751732552664     1.007825032230
         H           -3.631055000000     0.000000000000     2.323555818292     1.007825032230
         H           -3.631055000000    -2.163429124986     0.751732552664     1.007825032230
         H           -3.631055000000    -1.337072731493    -1.791530915429     1.007825032230
         H           -3.631055000000     1.337072731493    -1.791530915429     1.007825032230
         H           -3.631055000000     2.163429124986     0.751732552664     1.007825032230
         MG           1.872936755532     0.000000000000    -0.132306511439    23.985041697000
         MG          -1.872936755532     0.000000000000    -0.132306511439    23.985041697000

  Nuclear repulsion =  685.111743567549638
  Reference energy  = -783.694041198154082

  ==> Basis Set <==

  Basis Set: CC-PVDZ
    Blend: CC-PVDZ
    Number of shells: 106
    Number of basis functions: 226
    Number of Cartesian functions: 238
    Spherical Harmonics?: true
    Max angular momentum: 2

  ==> CGRSolver (by Rob Parrish) <==

   Number of roots    =         1
   Preconditioning    =    JACOBI
   Convergence cutoff =     1E-06
   Maximum iterations =       100

  ==> CPHFRHamiltonian (by Rob Parrish) <== 

  ==> DiskDFJK: Density-Fitted J/K Matrices <==

    J tasked:                  Yes
    K tasked:                  Yes
    wK tasked:                  No
    OpenMP threads:              4
    Integrals threads:           4
    Memory [MiB]:              375
    Algorithm:                Core
    Integral Cache:           NONE
    Schwarz Cutoff:          1E-12
    Fitting Condition:       1E-10

   => Auxiliary Basis Set <=

  Basis Set: (CC-PVDZ AUX)
    Blend: CC-PVDZ-JKFIT + DEF2-UNIVERSAL-JKFIT
    Number of shells: 398
    Number of basis functions: 1154
    Number of Cartesian functions: 1334
    Spherical Harmonics?: true
    Max angular momentum: 4

  ==> CPHF Iterations <==

  => Iterations <=

             Iter  Converged  Remaining    Residual
  CGR           1          0          1   8.269E-02
  CGR           2          0          1   1.227E-02
  CGR           3          0          1   2.836E-03
  CGR           4          0          1   1.062E-03
  CGR           5          0          1   3.425E-04
  CGR           6          0          1   8.465E-05
  CGR           7          0          1   3.316E-05
  CGR           8          0          1   1.186E-05
  CGR           9          0          1   2.752E-06
  CGR          10          1          0   6.703E-07

    CGRSolver converged.

  ==> DFCorrGrad: Density-Fitted Correlated Gradients <==

    OpenMP threads:              4
    Integrals threads:           4
    Memory [GiB]:            0.366
    Schwarz Cutoff:          0E+00
    Fitting Condition:       1E-10

   => Auxiliary Basis Set <=

  Basis Set: (CC-PVDZ AUX)
    Blend: CC-PVDZ-JKFIT + DEF2-UNIVERSAL-JKFIT
    Number of shells: 398
    Number of basis functions: 1154
    Number of Cartesian functions: 1334
    Spherical Harmonics?: true
    Max angular momentum: 4

	-----------------------------------------------------------
	 ==================> DF-MP2 Energies <==================== 
	-----------------------------------------------------------
	 Reference Energy          =    -783.6940411981540819 [Eh]
	 Singles Energy            =      -0.0000000000000000 [Eh]
	 Same-Spin Energy          =      -0.3855077360380076 [Eh]
	 Opposite-Spin Energy      =      -1.0539534060580789 [Eh]
	 Correlation Energy        =      -1.4394611420960866 [Eh]
	 Total Energy              =    -785.1335023402501747 [Eh]
	-----------------------------------------------------------
	 ================> DF-SCS-MP2 Energies <================== 
	-----------------------------------------------------------
	 SCS Same-Spin Scale       =       0.3333333333333333 [-]
	 SCS Opposite-Spin Scale   =       1.2000000000000000 [-]
	 SCS Same-Spin Energy      =      -0.1285025786793359 [Eh]
	 SCS Opposite-Spin Energy  =      -1.2647440872696947 [Eh]
	 SCS Correlation Energy    =      -1.3932466659490306 [Eh]
	 SCS Total Energy          =    -785.0872878641031321 [Eh]
	-----------------------------------------------------------


  -Total Gradient:
     Atom            X                  Y                   Z
    ------   -----------------  -----------------  -----------------
       1       -0.007630056214    -0.000000001123    -0.016397099101
       2       -0.013057260011     0.018879763753    -0.007824700394
       3       -0.027942180940     0.018458124234     0.022492385678
       4       -0.027942180769    -0.018458127667     0.022492383743
       5       -0.013057260040    -0.018879766869    -0.007824699279
       6        0.007630055700     0.000000000024    -0.016397098971
       7        0.013057258861     0.018879767334    -0.007824697315
       8        0.027942178629     0.018458125205     0.022492390064
       9        0.027942178436    -0.018458127294     0.022492389944
      10        0.013057258685    -0.018879766414    -0.007824695324
      11        0.000580625439     0.000000000164    -0.009913701613
      12        0.000120554809     0.009596721652    -0.002839027010
      13       -0.001061234023     0.005859340899     0.008322646133
      14       -0.001061233963    -0.005859339583     0.008322644945
      15        0.000120554957    -0.009596717587    -0.002839025754
      16       -0.000580625329    -0.000000000018    -0.009913698023
      17       -0.000120554801     0.009596713823    -0.002839024817
      18        0.001061234089     0.005859334339     0.008322636917
      19        0.001061234039    -0.005859333313     0.008322635695
      20       -0.000120554767    -0.009596714269    -0.002839025086
      21        0.114993790841     0.000000002132    -0.013991807319
      22       -0.114993783621     0.000000000577    -0.013991813112


*** tstop() called on n039 at Thu Aug 24 03:53:11 2023
Module time:
	user time   =     107.47 seconds =       1.79 minutes
	system time =       1.49 seconds =       0.02 minutes
	total time  =         31 seconds =       0.52 minutes
Total time:
	user time   =     137.89 seconds =       2.30 minutes
	system time =       1.95 seconds =       0.03 minutes
	total time  =         41 seconds =       0.68 minutes

    			-----------------------------------------

    			 OPTKING 3.0: for geometry optimizations 

    			     By R.A. King, Bethel University     

    			        with contributions from          

    			    A.V. Copan, J. Cayton, A. Heide      

    			-----------------------------------------

    
	                            ===> Fragment 1 <== 

	 Z (Atomic Numbers)          Masses                          Geom                  
	       6.000000            12.000000          6.86169950  0.00000000  2.35472313   
	       6.000000            12.000000          6.86169950 -2.15178435  0.79136029   
	       6.000000            12.000000          6.86169950 -1.32987586 -1.73821392   
	       6.000000            12.000000          6.86169950  1.32987586 -1.73821392   
	       6.000000            12.000000          6.86169950  2.15178435  0.79136029   
	       1.000000             1.007825         -6.86169950  0.00000000  2.35472313   
	       1.000000             1.007825         -6.86169950 -2.15178435  0.79136029   
	       1.000000             1.007825         -6.86169950 -1.32987586 -1.73821392   
	       1.000000             1.007825         -6.86169950  1.32987586 -1.73821392   
	       1.000000             1.007825         -6.86169950  2.15178435  0.79136029   
	      12.000000            23.985042          6.86169950  0.00000000  4.39088413   
	       6.000000            12.000000          6.86169950 -4.08828854  1.42056864   
	       6.000000            12.000000          6.86169950 -2.52670127 -3.38550278   
	       6.000000            12.000000          6.86169950  2.52670127 -3.38550278   
	       6.000000            12.000000          6.86169950  4.08828854  1.42056864   
	       6.000000            12.000000         -6.86169950  0.00000000  4.39088413   
	       1.000000             1.007825         -6.86169950 -4.08828854  1.42056864   
	       1.000000             1.007825         -6.86169950 -2.52670127 -3.38550278   
	       1.000000             1.007825         -6.86169950  2.52670127 -3.38550278   
	       1.000000             1.007825         -6.86169950  4.08828854  1.42056864   
	       1.000000             1.007825          3.53933752  0.00000000 -0.25002307   
	      12.000000            23.985042         -3.53933752  0.00000000 -0.25002307   

	 - Coordinate -           - BOHR/RAD -       - ANG/DEG -
	 R(1,2)           =         2.659752           1.407480
	 R(1,5)           =         2.659752           1.407480
	 R(1,11)          =         2.036161           1.077490
	 R(1,21)          =         4.221705           2.234030
	 R(2,3)           =         2.659752           1.407480
	 R(2,12)          =         2.036161           1.077490
	 R(2,21)          =         4.093012           2.165928
	 R(3,4)           =         2.659752           1.407480
	 R(3,13)          =         2.036161           1.077490
	 R(3,21)          =         3.875741           2.050954
	 R(4,5)           =         2.659752           1.407480
	 R(4,14)          =         2.036161           1.077490
	 R(4,21)          =         3.875741           2.050954
	 R(5,15)          =         2.036161           1.077490
	 R(5,21)          =         4.093012           2.165928
	 R(6,7)           =         2.659752           1.407480
	 R(6,10)          =         2.659752           1.407480
	 R(6,16)          =         2.036161           1.077490
	 R(6,22)          =         4.221705           2.234030
	 R(7,8)           =         2.659752           1.407480
	 R(7,17)          =         2.036161           1.077490
	 R(7,22)          =         4.093012           2.165928
	 R(8,9)           =         2.659752           1.407480
	 R(8,18)          =         2.036161           1.077490
	 R(8,22)          =         3.875741           2.050954
	 R(9,10)          =         2.659752           1.407480
	 R(9,19)          =         2.036161           1.077490
	 R(9,22)          =         3.875741           2.050954
	 R(10,20)         =         2.036161           1.077490
	 R(10,22)         =         4.093012           2.165928
	 R(11,22)         =        11.389451           6.027038
	 B(1,2,3)         =         1.884956         108.000000
	 B(1,2,12)        =         2.199115         126.000000
	 B(1,2,21)        =         1.291408          73.992232
	 B(1,5,4)         =         1.884956         108.000000
	 B(1,5,15)        =         2.199115         126.000000
	 B(1,5,21)        =         1.291408          73.992232
	 B(1,11,22)       =         1.151110          65.953734
	 B(1,21,2)        =         0.650506          37.271238
	 B(1,21,3)        =         1.117759          64.042858
	 B(1,21,4)        =         1.117759          64.042858
	 B(1,21,5)        =         0.650506          37.271238
	 B(2,1,5)         =         1.884956         108.000000
	 B(2,1,11)        =         2.199115         126.000000
	 B(2,1,21)        =         1.199679          68.736530
	 B(2,3,4)         =         1.884956         108.000000
	 B(2,3,13)        =         2.199115         126.000000
	 B(2,3,21)        =         1.308654          74.980353
	 B(2,21,3)        =         0.678502          38.875300
	 B(2,21,4)        =         1.139846          65.308386
	 B(2,21,5)        =         1.107126          63.433658
	 B(3,2,12)        =         2.199115         126.000000
	 B(3,2,21)        =         1.154437          66.144347
	 B(3,4,5)         =         1.884956         108.000000
	 B(3,4,14)        =         2.199115         126.000000
	 B(3,4,21)        =         1.220551          69.932429
	 B(3,21,4)        =         0.700490          40.135143
	 B(3,21,5)        =         1.139846          65.308386
	 B(4,3,13)        =         2.199115         126.000000
	 B(4,3,21)        =         1.220551          69.932429
	 B(4,5,15)        =         2.199115         126.000000
	 B(4,5,21)        =         1.154437          66.144347
	 B(4,21,5)        =         0.678502          38.875300
	 B(5,1,11)        =         2.199115         126.000000
	 B(5,1,21)        =         1.199679          68.736530
	 B(5,4,14)        =         2.199115         126.000000
	 B(5,4,21)        =         1.308654          74.980353
	 B(6,7,8)         =         1.884956         108.000000
	 B(6,7,17)        =         2.199115         126.000000
	 B(6,7,22)        =         1.291408          73.992232
	 B(6,10,9)        =         1.884956         108.000000
	 B(6,10,20)       =         2.199115         126.000000
	 B(6,10,22)       =         1.291408          73.992232
	 B(6,22,7)        =         0.650506          37.271238
	 B(6,22,8)        =         1.117759          64.042858
	 B(6,22,9)        =         1.117759          64.042858
	 B(6,22,10)       =         0.650506          37.271238
	 B(6,22,11)       =         2.056995         117.857134
	 B(7,6,10)        =         1.884956         108.000000
	 B(7,6,16)        =         2.199115         126.000000
	 B(7,6,22)        =         1.199679          68.736530
	 B(7,8,9)         =         1.884956         108.000000
	 B(7,8,18)        =         2.199115         126.000000
	 B(7,8,22)        =         1.308654          74.980353
	 B(7,22,8)        =         0.678502          38.875300
	 B(7,22,9)        =         1.139846          65.308386
	 B(7,22,10)       =         1.107126          63.433658
	 B(7,22,11)       =         2.262174         129.613007
	 B(8,7,17)        =         2.199115         126.000000
	 B(8,7,22)        =         1.154437          66.144347
	 B(8,9,10)        =         1.884956         108.000000
	 B(8,9,19)        =         2.199115         126.000000
	 B(8,9,22)        =         1.220551          69.932429
	 B(8,22,9)        =         0.700490          40.135143
	 B(8,22,10)       =         1.139846          65.308386
	 B(8,22,11)       =         2.791345         159.932265
	 B(9,8,18)        =         2.199115         126.000000
	 B(9,8,22)        =         1.220551          69.932429
	 B(9,10,20)       =         2.199115         126.000000
	 B(9,10,22)       =         1.154437          66.144347
	 B(9,22,10)       =         0.678502          38.875300
	 B(9,22,11)       =         2.791345         159.932265
	 B(10,6,16)       =         2.199115         126.000000
	 B(10,6,22)       =         1.199679          68.736530
	 B(10,9,19)       =         2.199115         126.000000
	 B(10,9,22)       =         1.308654          74.980353
	 B(10,22,11)      =         2.262174         129.613007
	 B(11,1,21)       =         2.235707         128.096600
	 B(12,2,21)       =         2.187825         125.353115
	 B(13,3,21)       =         2.108690         120.819061
	 B(14,4,21)       =         2.108690         120.819061
	 B(15,5,21)       =         2.187825         125.353115
	 B(16,6,22)       =         2.235707         128.096600
	 B(17,7,22)       =         2.187825         125.353115
	 B(18,8,22)       =         2.108690         120.819061
	 B(19,9,22)       =         2.108690         120.819061
	 B(20,10,22)      =         2.187825         125.353115
	 D(1,2,3,4)       =         0.000000           0.000000
	 D(1,2,3,13)      =         3.141593         180.000000
	 D(1,2,3,21)      =        -1.091980         -62.565831
	 D(1,2,21,3)      =         2.069606         118.579715
	 D(1,2,21,4)      =         1.378276          78.969401
	 D(1,2,21,5)      =         0.623036          35.697349
	 D(1,5,4,3)       =         0.000000           0.000000
	 D(1,5,4,14)      =         3.141593         180.000000
	 D(1,5,4,21)      =         1.091980          62.565831
	 D(1,5,21,2)      =        -0.623036         -35.697349
	 D(1,5,21,3)      =        -1.378276         -78.969401
	 D(1,5,21,4)      =        -2.069606        -118.579715
	 D(1,11,22,6)     =         3.141593         180.000000
	 D(1,11,22,7)     =         2.390513         136.966283
	 D(1,11,22,8)     =         1.566838          89.773208
	 D(1,11,22,9)     =        -1.566838         -89.773208
	 D(1,11,22,10)    =        -2.390513        -136.966283
	 D(1,21,2,3)      =        -2.069606        -118.579715
	 D(1,21,2,12)     =         2.148639         123.107972
	 D(1,21,3,2)      =         0.632875          36.261071
	 D(1,21,3,4)      =        -1.392012         -79.756396
	 D(1,21,3,13)     =         2.784329         159.530316
	 D(1,21,4,3)      =         1.392012          79.756396
	 D(1,21,4,5)      =        -0.632875         -36.261071
	 D(1,21,4,14)     =        -2.784329        -159.530316
	 D(1,21,5,4)      =         2.069606         118.579715
	 D(1,21,5,15)     =        -2.148639        -123.107972
	 D(2,1,5,4)       =         0.000000           0.000000
	 D(2,1,5,15)      =         3.141593         180.000000
	 D(2,1,5,21)      =         1.005557          57.614154
	 D(2,1,11,22)     =        -1.570796         -90.000000
	 D(2,1,21,3)      =        -0.659839         -37.806014
	 D(2,1,21,4)      =        -1.442949         -82.674875
	 D(2,1,21,5)      =        -2.102788        -120.480889
	 D(2,3,4,5)       =         0.000000           0.000000
	 D(2,3,4,14)      =         3.141593         180.000000
	 D(2,3,4,21)      =        -1.149664         -65.870885
	 D(2,3,21,4)      =         2.024887         116.017467
	 D(2,3,21,5)      =         1.355146          77.644166
	 D(2,21,1,5)      =         2.102788         120.480889
	 D(2,21,1,11)     =        -2.090199        -119.759555
	 D(2,21,3,4)      =        -2.024887        -116.017467
	 D(2,21,3,13)     =         2.151454         123.269245
	 D(2,21,4,3)      =         0.669740          38.373301
	 D(2,21,4,5)      =        -1.355146         -77.644166
	 D(2,21,4,14)     =         2.776585         159.086589
	 D(2,21,5,4)      =         1.446570          82.882366
	 D(2,21,5,15)     =        -2.771676        -158.805320
	 D(3,2,1,5)       =         0.000000           0.000000
	 D(3,2,1,11)      =         3.141593         180.000000
	 D(3,2,1,21)      =         1.005557          57.614154
	 D(3,2,21,4)      =        -0.691330         -39.610314
	 D(3,2,21,5)      =        -1.446570         -82.882366
	 D(3,4,5,15)      =         3.141593         180.000000
	 D(3,4,5,21)      =        -1.091980         -62.565831
	 D(3,4,21,5)      =         2.024887         116.017467
	 D(3,21,1,5)      =         1.442949          82.674875
	 D(3,21,1,11)     =        -2.750038        -157.565569
	 D(3,21,2,12)     =        -2.064939        -118.312314
	 D(3,21,4,5)      =        -2.024887        -116.017467
	 D(3,21,4,14)     =         2.106844         120.713288
	 D(3,21,5,4)      =         0.691330          39.610314
	 D(3,21,5,15)     =         2.756270         157.922627
	 D(4,3,2,12)      =         3.141593         180.000000
	 D(4,3,2,21)      =         1.091980          62.565831
	 D(4,3,21,5)      =        -0.669740         -38.373301
	 D(4,5,1,11)      =         3.141593         180.000000
	 D(4,5,1,21)      =        -1.005557         -57.614154
	 D(4,21,1,5)      =         0.659839          37.806014
	 D(4,21,1,11)     =         2.750038         157.565569
	 D(4,21,2,12)     =        -2.756270        -157.922627
	 D(4,21,3,13)     =        -2.106844        -120.713288
	 D(4,21,5,15)     =         2.064939         118.312314
	 D(5,1,2,12)      =         3.141593         180.000000
	 D(5,1,2,21)      =        -1.005557         -57.614154
	 D(5,1,11,22)     =         1.570796          90.000000
	 D(5,4,3,13)      =         3.141593         180.000000
	 D(5,4,3,21)      =         1.149664          65.870885
	 D(5,21,1,11)     =         2.090199         119.759555
	 D(5,21,2,12)     =         2.771676         158.805320
	 D(5,21,3,13)     =        -2.776585        -159.086589
	 D(5,21,4,14)     =        -2.151454        -123.269245
	 D(6,7,8,9)       =         0.000000           0.000000
	 D(6,7,8,18)      =         3.141593         180.000000
	 D(6,7,8,22)      =         1.091980          62.565831
	 D(6,7,22,8)      =        -2.069606        -118.579715
	 D(6,7,22,9)      =        -1.378276         -78.969401
	 D(6,7,22,10)     =        -0.623036         -35.697349
	 D(6,7,22,11)     =         1.484696          85.066825
	 D(6,10,9,8)      =         0.000000           0.000000
	 D(6,10,9,19)     =         3.141593         180.000000
	 D(6,10,9,22)     =        -1.091980         -62.565831
	 D(6,10,22,7)     =         0.623036          35.697349
	 D(6,10,22,8)     =         1.378276          78.969401
	 D(6,10,22,9)     =         2.069606         118.579715
	 D(6,10,22,11)    =        -1.484696         -85.066825
	 D(6,22,7,8)      =         2.069606         118.579715
	 D(6,22,7,17)     =        -2.148639        -123.107972
	 D(6,22,8,7)      =        -0.632875         -36.261071
	 D(6,22,8,9)      =         1.392012          79.756396
	 D(6,22,8,18)     =        -2.784329        -159.530316
	 D(6,22,9,8)      =        -1.392012         -79.756396
	 D(6,22,9,10)     =         0.632875          36.261071
	 D(6,22,9,19)     =         2.784329         159.530316
	 D(6,22,10,9)     =        -2.069606        -118.579715
	 D(6,22,10,20)    =         2.148639         123.107972
	 D(7,6,10,9)      =         0.000000           0.000000
	 D(7,6,10,20)     =         3.141593         180.000000
	 D(7,6,10,22)     =        -1.005557         -57.614154
	 D(7,6,22,8)      =         0.659839          37.806014
	 D(7,6,22,9)      =         1.442949          82.674875
	 D(7,6,22,10)     =         2.102788         120.480889
	 D(7,6,22,11)     =        -2.090199        -119.759555
	 D(7,8,9,10)      =         0.000000           0.000000
	 D(7,8,9,19)      =         3.141593         180.000000
	 D(7,8,9,22)      =         1.149664          65.870885
	 D(7,8,22,9)      =        -2.024887        -116.017467
	 D(7,8,22,10)     =        -1.355146         -77.644166
	 D(7,8,22,11)     =         1.120920          64.223984
	 D(7,22,6,10)     =        -2.102788        -120.480889
	 D(7,22,6,16)     =         2.090199         119.759555
	 D(7,22,8,9)      =         2.024887         116.017467
	 D(7,22,8,18)     =        -2.151454        -123.269245
	 D(7,22,9,8)      =        -0.669740         -38.373301
	 D(7,22,9,10)     =         1.355146          77.644166
	 D(7,22,9,19)     =        -2.776585        -159.086589
	 D(7,22,10,9)     =        -1.446570         -82.882366
	 D(7,22,10,20)    =         2.771676         158.805320
	 D(8,7,6,10)      =         0.000000           0.000000
	 D(8,7,6,16)      =         3.141593         180.000000
	 D(8,7,6,22)      =        -1.005557         -57.614154
	 D(8,7,22,9)      =         0.691330          39.610314
	 D(8,7,22,10)     =         1.446570          82.882366
	 D(8,7,22,11)     =        -2.728883        -156.353460
	 D(8,9,10,20)     =         3.141593         180.000000
	 D(8,9,10,22)     =         1.091980          62.565831
	 D(8,9,22,10)     =        -2.024887        -116.017467
	 D(8,9,22,11)     =         3.137379         179.758549
	 D(8,22,6,10)     =        -1.442949         -82.674875
	 D(8,22,6,16)     =         2.750038         157.565569
	 D(8,22,7,17)     =         2.064939         118.312314
	 D(8,22,9,10)     =         2.024887         116.017467
	 D(8,22,9,19)     =        -2.106844        -120.713288
	 D(8,22,10,9)     =        -0.691330         -39.610314
	 D(8,22,10,20)    =        -2.756270        -157.922627
	 D(9,8,7,17)      =         3.141593         180.000000
	 D(9,8,7,22)      =        -1.091980         -62.565831
	 D(9,8,22,10)     =         0.669740          38.373301
	 D(9,8,22,11)     =        -3.137379        -179.758549
	 D(9,10,6,16)     =         3.141593         180.000000
	 D(9,10,6,22)     =         1.005557          57.614154
	 D(9,10,22,11)    =         2.728883         156.353460
	 D(9,22,6,10)     =        -0.659839         -37.806014
	 D(9,22,6,16)     =        -2.750038        -157.565569
	 D(9,22,7,17)     =         2.756270         157.922627
	 D(9,22,8,18)     =         2.106844         120.713288
	 D(9,22,10,20)    =        -2.064939        -118.312314
	 D(10,6,7,17)     =         3.141593         180.000000
	 D(10,6,7,22)     =         1.005557          57.614154
	 D(10,6,22,11)    =         2.090199         119.759555
	 D(10,9,8,18)     =         3.141593         180.000000
	 D(10,9,8,22)     =        -1.149664         -65.870885
	 D(10,9,22,11)    =        -1.120920         -64.223984
	 D(10,22,6,16)    =        -2.090199        -119.759555
	 D(10,22,7,17)    =        -2.771676        -158.805320
	 D(10,22,8,18)    =         2.776585         159.086589
	 D(10,22,9,19)    =         2.151454         123.269245
	 D(11,1,2,12)     =         0.000000           0.000000
	 D(11,1,2,21)     =         2.136036         122.385846
	 D(11,1,5,15)     =         0.000000           0.000000
	 D(11,1,5,21)     =        -2.136036        -122.385846
	 D(11,22,6,16)    =         0.000000           0.000000
	 D(11,22,7,17)    =        -0.663943         -38.041146
	 D(11,22,8,18)    =        -1.030534         -59.045261
	 D(11,22,9,19)    =         1.030534          59.045261
	 D(11,22,10,20)   =         0.663943          38.041146
	 D(12,2,1,21)     =        -2.136036        -122.385846
	 D(12,2,3,13)     =         0.000000           0.000000
	 D(12,2,3,21)     =         2.049613         117.434169
	 D(13,3,2,21)     =        -2.049613        -117.434169
	 D(13,3,4,14)     =         0.000000           0.000000
	 D(13,3,4,21)     =         1.991929         114.129115
	 D(14,4,3,21)     =        -1.991929        -114.129115
	 D(14,4,5,15)     =         0.000000           0.000000
	 D(14,4,5,21)     =         2.049613         117.434169
	 D(15,5,1,21)     =         2.136036         122.385846
	 D(15,5,4,21)     =        -2.049613        -117.434169
	 D(16,6,7,17)     =         0.000000           0.000000
	 D(16,6,7,22)     =        -2.136036        -122.385846
	 D(16,6,10,20)    =         0.000000           0.000000
	 D(16,6,10,22)    =         2.136036         122.385846
	 D(17,7,6,22)     =         2.136036         122.385846
	 D(17,7,8,18)     =         0.000000           0.000000
	 D(17,7,8,22)     =        -2.049613        -117.434169
	 D(18,8,7,22)     =         2.049613         117.434169
	 D(18,8,9,19)     =         0.000000           0.000000
	 D(18,8,9,22)     =        -1.991929        -114.129115
	 D(19,9,8,22)     =         1.991929         114.129115
	 D(19,9,10,20)    =         0.000000           0.000000
	 D(19,9,10,22)    =        -2.049613        -117.434169
	 D(20,10,6,22)    =        -2.136036        -122.385846
	 D(20,10,9,22)    =         2.049613         117.434169
	 D(21,1,11,22)    =         0.000000           0.000000
	*R(21,22)         =         7.078675           3.745874


	        --- Internal Coordinate Step in ANG or DEG, aJ/ANG or AJ/DEG ---
	-------------------------------------------------------------------------------
	           Coordinate      Previous         Force          Change          New 
	           ----------      --------        ------          ------        ------
	               R(1,2)       1.40748        0.12291        0.01988       1.42736
	               R(1,5)       1.40748        0.12291        0.01988       1.42736
	              R(1,11)       1.07749        0.08168        0.00041       1.07790
	              R(1,21)       2.23403        0.13368        0.04487       2.27890
	               R(2,3)       1.40748        0.14052        0.02277       1.43025
	              R(2,12)       1.07749        0.08242        0.00249       1.07998
	              R(2,21)       2.16593        0.16639        0.05642       2.22235
	               R(3,4)       1.40748        0.15813        0.02552       1.43300
	              R(3,13)       1.07749        0.08385        0.00253       1.08002
	              R(3,21)       2.05095        0.22737        0.07988       2.13084
	               R(4,5)       1.40748        0.14052        0.02277       1.43025
	              R(4,14)       1.07749        0.08385        0.00253       1.08002
	              R(4,21)       2.05095        0.22737        0.07988       2.13084
	              R(5,15)       1.07749        0.08242        0.00249       1.07998
	              R(5,21)       2.16593        0.16639        0.05642       2.22235
	               R(6,7)       1.40748        0.12139        0.04615       1.45363
	              R(6,10)       1.40748        0.12139        0.04615       1.45363
	              R(6,16)       1.07749        0.08168        0.01104       1.08853
	              R(6,22)       2.23403        0.13614        0.05627       2.29030
	               R(7,8)       1.40748        0.13923        0.05087       1.45835
	              R(7,17)       1.07749        0.08242        0.02050       1.09799
	              R(7,22)       2.16593        0.16857        0.06727       2.23320
	               R(8,9)       1.40748        0.15819        0.05623       1.46371
	              R(8,18)       1.07749        0.08385        0.02085       1.09834
	              R(8,22)       2.05095        0.22872        0.08871       2.13966
	              R(9,10)       1.40748        0.13923        0.05087       1.45835
	              R(9,19)       1.07749        0.08385        0.02085       1.09834
	              R(9,22)       2.05095        0.22872        0.08871       2.13966
	             R(10,20)       1.07749        0.08242        0.02050       1.09799
	             R(10,22)       2.16593        0.16857        0.06727       2.23320
	             R(11,22)       6.02704        0.00659        0.00673       6.03377
	             B(1,2,3)     108.00000        0.00002        0.05033     108.05033
	            B(1,2,12)     126.00000        0.00005        0.11848     126.11848
	            B(1,2,21)      73.99223       -0.00016       -0.31321      73.67902
	             B(1,5,4)     108.00000        0.00002        0.05033     108.05033
	            B(1,5,15)     126.00000        0.00005        0.11848     126.11848
	            B(1,5,21)      73.99223       -0.00016       -0.31321      73.67902
	           B(1,11,22)      65.95373        0.00026        1.05930      67.01304
	            B(1,21,2)      37.27124        0.00007       -0.32258      36.94866
	            B(1,21,3)      64.04286        0.00009       -0.88807      63.15478
	            B(1,21,4)      64.04286        0.00009       -0.88807      63.15478
	            B(1,21,5)      37.27124        0.00007       -0.32258      36.94866
	             B(2,1,5)     108.00000        0.00007        0.13087     108.13087
	            B(2,1,11)     126.00000       -0.00004       -0.06710     125.93290
	            B(2,1,21)      68.73653        0.00009        0.63579      69.37232
	             B(2,3,4)     108.00000       -0.00006       -0.11592     107.88408
	            B(2,3,13)     126.00000        0.00006        0.14226     126.14226
	            B(2,3,21)      74.98035       -0.00026       -0.65944      74.32091
	            B(2,21,3)      38.87530        0.00004       -0.58620      38.28910
	            B(2,21,4)      65.30839        0.00006       -1.10407      64.20432
	            B(2,21,5)      63.43366        0.00010       -0.76341      62.67025
	            B(3,2,12)     126.00000       -0.00008       -0.17163     125.82837
	            B(3,2,21)      66.14435        0.00022        1.24565      67.38999
	             B(3,4,5)     108.00000       -0.00006       -0.11592     107.88408
	            B(3,4,14)     126.00000       -0.00000       -0.02640     125.97360
	            B(3,4,21)      69.93243       -0.00000        0.41887      70.35130
	            B(3,21,4)      40.13514        0.00001       -0.83774      39.29740
	            B(3,21,5)      65.30839        0.00006       -1.10407      64.20432
	            B(4,3,13)     126.00000       -0.00000       -0.02640     125.97360
	            B(4,3,21)      69.93243       -0.00000        0.41887      70.35130
	            B(4,5,15)     126.00000       -0.00008       -0.17163     125.82837
	            B(4,5,21)      66.14435        0.00022        1.24565      67.38999
	            B(4,21,5)      38.87530        0.00004       -0.58620      38.28910
	            B(5,1,11)     126.00000       -0.00004       -0.06710     125.93290
	            B(5,1,21)      68.73653        0.00009        0.63579      69.37232
	            B(5,4,14)     126.00000        0.00006        0.14226     126.14226
	            B(5,4,21)      74.98035       -0.00026       -0.65944      74.32091
	             B(6,7,8)     108.00000        0.00002        0.08401     108.08401
	            B(6,7,17)     126.00000        0.00005        0.16040     126.16040
	            B(6,7,22)      73.99223       -0.00016       -0.59177      73.40047
	            B(6,10,9)     108.00000        0.00002        0.08401     108.08401
	           B(6,10,20)     126.00000        0.00005        0.16040     126.16040
	           B(6,10,22)      73.99223       -0.00016       -0.59177      73.40047
	            B(6,22,7)      37.27124        0.00006        0.19122      37.46246
	            B(6,22,8)      64.04286        0.00007        0.14393      64.18679
	            B(6,22,9)      64.04286        0.00007        0.14393      64.18679
	           B(6,22,10)      37.27124        0.00006        0.19122      37.46246
	           B(6,22,11)     117.85713       -0.00007       -0.13566     117.72147
	            B(7,6,10)     108.00000        0.00008        0.22782     108.22782
	            B(7,6,16)     126.00000       -0.00004       -0.11425     125.88575
	            B(7,6,22)      68.73653        0.00010        0.40055      69.13708
	             B(7,8,9)     108.00000       -0.00006       -0.19802     107.80198
	            B(7,8,18)     126.00000        0.00007        0.21175     126.21175
	            B(7,8,22)      74.98035       -0.00025       -0.95700      74.02336
	            B(7,22,8)      38.87530        0.00003        0.01311      38.88841
	            B(7,22,9)      65.30839        0.00005        0.00786      65.31624
	           B(7,22,10)      63.43366        0.00009        0.22139      63.65505
	           B(7,22,11)     129.61301       -0.00004       -0.00687     129.60614
	            B(8,7,17)     126.00000       -0.00008       -0.24473     125.75527
	            B(8,7,22)      66.14435        0.00022        0.94388      67.08823
	            B(8,9,10)     108.00000       -0.00006       -0.19802     107.80198
	            B(8,9,19)     126.00000       -0.00000       -0.01441     125.98559
	            B(8,9,22)      69.93243       -0.00000        0.06628      69.99871
	            B(8,22,9)      40.13514        0.00000       -0.13256      40.00259
	           B(8,22,10)      65.30839        0.00005        0.00786      65.31624
	           B(8,22,11)     159.93226       -0.00000        0.06612     159.99839
	            B(9,8,18)     126.00000       -0.00000       -0.01441     125.98559
	            B(9,8,22)      69.93243       -0.00000        0.06628      69.99871
	           B(9,10,20)     126.00000       -0.00008       -0.24473     125.75527
	           B(9,10,22)      66.14435        0.00022        0.94388      67.08823
	           B(9,22,10)      38.87530        0.00003        0.01311      38.88841
	           B(9,22,11)     159.93226       -0.00000        0.06612     159.99839
	           B(10,6,16)     126.00000       -0.00004       -0.11425     125.88575
	           B(10,6,22)      68.73653        0.00010        0.40055      69.13708
	           B(10,9,19)     126.00000        0.00007        0.21175     126.21175
	           B(10,9,22)      74.98035       -0.00025       -0.95700      74.02336
	          B(10,22,11)     129.61301       -0.00004       -0.00687     129.60614
	           B(11,1,21)     128.09660       -0.00011       -0.69186     127.40474
	           B(12,2,21)     125.35312       -0.00002       -0.39267     124.96044
	           B(13,3,21)     120.81906        0.00016        0.25713     121.07619
	           B(14,4,21)     120.81906        0.00016        0.25713     121.07619
	           B(15,5,21)     125.35312       -0.00002       -0.39267     124.96044
	           B(16,6,22)     128.09660       -0.00012       -0.45120     127.64540
	           B(17,7,22)     125.35312       -0.00003       -0.12891     125.22420
	           B(18,8,22)     120.81906        0.00015        0.53522     121.35428
	           B(19,9,22)     120.81906        0.00015        0.53522     121.35428
	          B(20,10,22)     125.35312       -0.00003       -0.12891     125.22420
	           D(1,2,3,4)       0.00000       -0.00002       -0.10701      -0.10701
	          D(1,2,3,13)     180.00000        0.00006       -0.19276     179.80724
	          D(1,2,3,21)     -62.56583        0.00009       -0.31169     -62.87752
	          D(1,2,21,3)     118.57971        0.00001       -0.43556     118.14415
	          D(1,2,21,4)      78.96940        0.00005       -0.02813      78.94127
	          D(1,2,21,5)      35.69735        0.00004        0.25761      35.95496
	           D(1,5,4,3)       0.00000        0.00002        0.10701       0.10701
	          D(1,5,4,14)     180.00000       -0.00006        0.19276     180.19276
	          D(1,5,4,21)      62.56583       -0.00009        0.31169      62.87752
	          D(1,5,21,2)     -35.69735       -0.00004       -0.25761     -35.95496
	          D(1,5,21,3)     -78.96940       -0.00005        0.02813     -78.94127
	          D(1,5,21,4)    -118.57971       -0.00001        0.43556    -118.14415
	         D(1,11,22,6)     180.00000        0.00000        0.00000     180.00000
	         D(1,11,22,7)     136.96628       -0.00004       -0.16201     136.80427
	         D(1,11,22,8)      89.77321       -0.00003       -0.09060      89.68261
	         D(1,11,22,9)     -89.77321        0.00003        0.09060     -89.68261
	        D(1,11,22,10)    -136.96628        0.00004        0.16201    -136.80427
	          D(1,21,2,3)    -118.57971       -0.00001        0.43556    -118.14415
	         D(1,21,2,12)     123.10797       -0.00005       -0.10277     123.00521
	          D(1,21,3,2)      36.26107        0.00003        0.18373      36.44480
	          D(1,21,3,4)     -79.75640       -0.00004        0.16744     -79.58896
	         D(1,21,3,13)     159.53032       -0.00002        0.01227     159.54258
	          D(1,21,4,3)      79.75640        0.00004       -0.16744      79.58896
	          D(1,21,4,5)     -36.26107       -0.00003       -0.18373     -36.44480
	         D(1,21,4,14)    -159.53032        0.00002       -0.01227    -159.54258
	          D(1,21,5,4)     118.57971        0.00001       -0.43556     118.14415
	         D(1,21,5,15)    -123.10797        0.00005        0.10277    -123.00521
	           D(2,1,5,4)       0.00000       -0.00003       -0.17353      -0.17353
	          D(2,1,5,15)     180.00000       -0.00001        0.41043     180.41043
	          D(2,1,5,21)      57.61415        0.00013        1.09697      58.71112
	         D(2,1,11,22)     -90.00000       -0.00003       -0.37197     -90.37197
	          D(2,1,21,3)     -37.80601        0.00000        0.04558     -37.76044
	          D(2,1,21,4)     -82.67488        0.00003        0.63490     -82.03997
	          D(2,1,21,5)    -120.48089        0.00003        0.68048    -119.80041
	           D(2,3,4,5)       0.00000        0.00000        0.00000       0.00000
	          D(2,3,4,14)     180.00000        0.00008       -0.08557     179.91443
	          D(2,3,4,21)     -65.87089        0.00027        0.49982     -65.37107
	          D(2,3,21,4)     116.01747        0.00007        0.01629     116.03376
	          D(2,3,21,5)      77.64417        0.00008        0.19167      77.83584
	          D(2,21,1,5)     120.48089       -0.00003       -0.68048     119.80041
	         D(2,21,1,11)    -119.75956       -0.00002       -0.34024    -120.09980
	          D(2,21,3,4)    -116.01747       -0.00007       -0.01629    -116.03376
	         D(2,21,3,13)     123.26925       -0.00005       -0.17147     123.09778
	          D(2,21,4,3)      38.37330       -0.00001       -0.17538      38.19792
	          D(2,21,4,5)     -77.64417       -0.00008       -0.19167     -77.83584
	         D(2,21,4,14)     159.08659       -0.00003       -0.02021     159.06638
	          D(2,21,5,4)      82.88237       -0.00003       -0.69318      82.18919
	         D(2,21,5,15)    -158.80532        0.00000       -0.15485    -158.96017
	           D(3,2,1,5)       0.00000        0.00003        0.17353       0.17353
	          D(3,2,1,11)     180.00000        0.00008        0.80736     180.80736
	          D(3,2,1,21)      57.61415        0.00016        1.27049      58.88465
	          D(3,2,21,4)     -39.61031        0.00004        0.40743     -39.20288
	          D(3,2,21,5)     -82.88237        0.00003        0.69318     -82.18919
	          D(3,4,5,15)     180.00000       -0.00001       -0.47481     179.52519
	          D(3,4,5,21)     -62.56583        0.00010       -0.20469     -62.77052
	          D(3,4,21,5)     116.01747        0.00007        0.01629     116.03376
	          D(3,21,1,5)      82.67488       -0.00003       -0.63490      82.03997
	         D(3,21,1,11)    -157.56557       -0.00001       -0.29466    -157.86023
	         D(3,21,2,12)    -118.31231       -0.00003       -0.53833    -118.85064
	          D(3,21,4,5)    -116.01747       -0.00007       -0.01629    -116.03376
	         D(3,21,4,14)     120.71329       -0.00002        0.15517     120.86846
	          D(3,21,5,4)      39.61031       -0.00004       -0.40743      39.20288
	         D(3,21,5,15)     157.92263       -0.00001        0.13090     158.05353
	          D(4,3,2,12)     180.00000        0.00001        0.47481     180.47481
	          D(4,3,2,21)      62.56583       -0.00010        0.20469      62.77052
	          D(4,3,21,5)     -38.37330        0.00001        0.17538     -38.19792
	          D(4,5,1,11)     180.00000       -0.00008       -0.80736     179.19264
	          D(4,5,1,21)     -57.61415       -0.00016       -1.27049     -58.88465
	          D(4,21,1,5)      37.80601       -0.00000       -0.04558      37.76044
	         D(4,21,1,11)     157.56557        0.00001        0.29466     157.86023
	         D(4,21,2,12)    -157.92263        0.00001       -0.13090    -158.05353
	         D(4,21,3,13)    -120.71329        0.00002       -0.15517    -120.86846
	         D(4,21,5,15)     118.31231        0.00003        0.53833     118.85064
	          D(5,1,2,12)     180.00000        0.00001       -0.41043     179.58957
	          D(5,1,2,21)     -57.61415       -0.00013       -1.09697     -58.71112
	         D(5,1,11,22)      90.00000        0.00003        0.37197      90.37197
	          D(5,4,3,13)     180.00000       -0.00008        0.08557     180.08557
	          D(5,4,3,21)      65.87089       -0.00027       -0.49982      65.37107
	         D(5,21,1,11)     119.75956        0.00002        0.34024     120.09980
	         D(5,21,2,12)     158.80532       -0.00000        0.15485     158.96017
	         D(5,21,3,13)    -159.08659        0.00003        0.02021    -159.06638
	         D(5,21,4,14)    -123.26925        0.00005        0.17147    -123.09778
	           D(6,7,8,9)       0.00000        0.00002        0.08588       0.08588
	          D(6,7,8,18)     180.00000       -0.00005       -0.20084     179.79916
	          D(6,7,8,22)      62.56583       -0.00008       -0.22960      62.33623
	          D(6,7,22,8)    -118.57971       -0.00001        0.04768    -118.53203
	          D(6,7,22,9)     -78.96940       -0.00005       -0.18824     -79.15764
	         D(6,7,22,10)     -35.69735       -0.00004       -0.20678     -35.90413
	         D(6,7,22,11)      85.06683       -0.00003       -0.06752      84.99931
	          D(6,10,9,8)       0.00000       -0.00002       -0.08588      -0.08588
	         D(6,10,9,19)     180.00000        0.00005        0.20084     180.20084
	         D(6,10,9,22)     -62.56583        0.00008        0.22960     -62.33623
	         D(6,10,22,7)      35.69735        0.00004        0.20678      35.90413
	         D(6,10,22,8)      78.96940        0.00005        0.18824      79.15764
	         D(6,10,22,9)     118.57971        0.00001       -0.04768     118.53203
	        D(6,10,22,11)     -85.06683        0.00003        0.06752     -84.99931
	          D(6,22,7,8)     118.57971        0.00001       -0.04768     118.53203
	         D(6,22,7,17)    -123.10797        0.00004        0.20397    -122.90400
	          D(6,22,8,7)     -36.26107       -0.00003       -0.15190     -36.41297
	          D(6,22,8,9)      79.75640        0.00003        0.10290      79.85930
	         D(6,22,8,18)    -159.53032        0.00002        0.08281    -159.44750
	          D(6,22,9,8)     -79.75640       -0.00003       -0.10290     -79.85930
	         D(6,22,9,10)      36.26107        0.00003        0.15190      36.41297
	         D(6,22,9,19)     159.53032       -0.00002       -0.08281     159.44750
	         D(6,22,10,9)    -118.57971       -0.00001        0.04768    -118.53203
	        D(6,22,10,20)     123.10797       -0.00004       -0.20397     122.90400
	          D(7,6,10,9)       0.00000        0.00003        0.13949       0.13949
	         D(7,6,10,20)     180.00000        0.00000       -0.05583     179.94417
	         D(7,6,10,22)     -57.61415       -0.00013       -0.59851     -58.21266
	          D(7,6,22,8)      37.80601       -0.00000       -0.02143      37.78459
	          D(7,6,22,9)      82.67488       -0.00003       -0.22865      82.44622
	         D(7,6,22,10)     120.48089       -0.00003       -0.25008     120.23081
	         D(7,6,22,11)    -119.75956       -0.00002       -0.12504    -119.88460
	          D(7,8,9,10)       0.00000       -0.00000       -0.00000      -0.00000
	          D(7,8,9,19)     180.00000       -0.00007       -0.28589     179.71411
	          D(7,8,9,22)      65.87089       -0.00026       -0.99136      64.87953
	          D(7,8,22,9)    -116.01747       -0.00006       -0.25481    -116.27227
	         D(7,8,22,10)     -77.64417       -0.00007       -0.34369     -77.98785
	         D(7,8,22,11)      64.22398       -0.00003       -0.15850      64.06549
	         D(7,22,6,10)    -120.48089        0.00003        0.25008    -120.23081
	         D(7,22,6,16)     119.75956        0.00002        0.12504     119.88460
	          D(7,22,8,9)     116.01747        0.00006        0.25481     116.27227
	         D(7,22,8,18)    -123.26925        0.00005        0.23472    -123.03453
	          D(7,22,9,8)     -38.37330        0.00001        0.08888     -38.28442
	         D(7,22,9,10)      77.64417        0.00007        0.34369      77.98785
	         D(7,22,9,19)    -159.08659        0.00003        0.10897    -158.97762
	         D(7,22,10,9)     -82.88237        0.00003        0.25446     -82.62790
	        D(7,22,10,20)     158.80532       -0.00000        0.00280     158.80812
	          D(8,7,6,10)       0.00000       -0.00003       -0.13949      -0.13949
	          D(8,7,6,16)     180.00000       -0.00007       -0.42652     179.57348
	          D(8,7,6,22)     -57.61415       -0.00016       -0.73800     -58.35215
	          D(8,7,22,9)      39.61031       -0.00004       -0.23592      39.37439
	         D(8,7,22,10)      82.88237       -0.00003       -0.25446      82.62790
	         D(8,7,22,11)    -156.35346       -0.00002       -0.11520    -156.46866
	         D(8,9,10,20)     180.00000        0.00001        0.10845     180.10845
	         D(8,9,10,22)      62.56583       -0.00010       -0.31548      62.25035
	         D(8,9,22,10)    -116.01747       -0.00006       -0.25481    -116.27227
	         D(8,9,22,11)     179.75855       -0.00003       -0.09631     179.66224
	         D(8,22,6,10)     -82.67488        0.00003        0.22865     -82.44622
	         D(8,22,6,16)     157.56557        0.00001        0.10361     157.66918
	         D(8,22,7,17)     118.31231        0.00003        0.25166     118.56397
	         D(8,22,9,10)     116.01747        0.00006        0.25481     116.27227
	         D(8,22,9,19)    -120.71329        0.00002        0.02009    -120.69320
	         D(8,22,10,9)     -39.61031        0.00004        0.23592     -39.37439
	        D(8,22,10,20)    -157.92263        0.00001       -0.01573    -157.93836
	          D(9,8,7,17)     180.00000       -0.00001       -0.10845     179.89155
	          D(9,8,7,22)     -62.56583        0.00010        0.31548     -62.25035
	         D(9,8,22,10)      38.37330       -0.00001       -0.08888      38.28442
	         D(9,8,22,11)    -179.75855        0.00003        0.09631    -179.66224
	         D(9,10,6,16)     180.00000        0.00007        0.42652     180.42652
	         D(9,10,6,22)      57.61415        0.00016        0.73800      58.35215
	        D(9,10,22,11)     156.35346        0.00002        0.11520     156.46866
	         D(9,22,6,10)     -37.80601        0.00000        0.02143     -37.78459
	         D(9,22,6,16)    -157.56557       -0.00001       -0.10361    -157.66918
	         D(9,22,7,17)     157.92263       -0.00001        0.01573     157.93836
	         D(9,22,8,18)     120.71329       -0.00002       -0.02009     120.69320
	        D(9,22,10,20)    -118.31231       -0.00003       -0.25166    -118.56397
	         D(10,6,7,17)     180.00000       -0.00000        0.05583     180.05583
	         D(10,6,7,22)      57.61415        0.00013        0.59851      58.21266
	        D(10,6,22,11)     119.75956        0.00002        0.12504     119.88459
	         D(10,9,8,18)     180.00000        0.00007        0.28589     180.28589
	         D(10,9,8,22)     -65.87089        0.00026        0.99136     -64.87953
	        D(10,9,22,11)     -64.22398        0.00003        0.15850     -64.06549
	        D(10,22,6,16)    -119.75956       -0.00002       -0.12504    -119.88460
	        D(10,22,7,17)    -158.80532        0.00000       -0.00280    -158.80812
	        D(10,22,8,18)     159.08659       -0.00003       -0.10897     158.97762
	        D(10,22,9,19)     123.26925       -0.00005       -0.23472     123.03453
	         D(11,1,2,12)       0.00000        0.00005        0.22340       0.22340
	         D(11,1,2,21)     122.38585       -0.00008       -0.46314     121.92271
	         D(11,1,5,15)       0.00000       -0.00005       -0.22340      -0.22340
	         D(11,1,5,21)    -122.38585        0.00008        0.46314    -121.92271
	        D(11,22,6,16)       0.00000       -0.00000       -0.00000      -0.00000
	        D(11,22,7,17)     -38.04115        0.00001        0.13646     -37.90469
	        D(11,22,8,18)     -59.04526        0.00001        0.07622     -58.96904
	        D(11,22,9,19)      59.04526       -0.00001       -0.07622      58.96904
	       D(11,22,10,20)      38.04115       -0.00001       -0.13646      37.90469
	         D(12,2,1,21)    -122.38585        0.00013        0.68654    -121.69931
	         D(12,2,3,13)       0.00000        0.00008        0.38905       0.38905
	         D(12,2,3,21)     117.43417        0.00011        0.27012     117.70429
	         D(13,3,2,21)    -117.43417       -0.00003        0.11893    -117.31524
	         D(13,3,4,14)       0.00000        0.00000        0.00000       0.00000
	         D(13,3,4,21)     114.12911        0.00020        0.58539     114.71450
	         D(14,4,3,21)    -114.12911       -0.00020       -0.58539    -114.71450
	         D(14,4,5,15)       0.00000       -0.00008       -0.38905      -0.38905
	         D(14,4,5,21)     117.43417        0.00003       -0.11893     117.31524
	         D(15,5,1,21)     122.38585       -0.00013       -0.68654     121.69931
	         D(15,5,4,21)    -117.43417       -0.00011       -0.27012    -117.70429
	         D(16,6,7,17)       0.00000       -0.00004       -0.23120      -0.23120
	         D(16,6,7,22)    -122.38585        0.00009        0.31148    -122.07437
	        D(16,6,10,20)       0.00000        0.00004        0.23120       0.23120
	        D(16,6,10,22)     122.38585       -0.00009       -0.31148     122.07437
	         D(17,7,6,22)     122.38585       -0.00013       -0.54267     121.84317
	         D(17,7,8,18)       0.00000       -0.00008       -0.39516      -0.39516
	         D(17,7,8,22)    -117.43417       -0.00011       -0.42392    -117.85809
	         D(18,8,7,22)     117.43417        0.00003        0.02876     117.46293
	         D(18,8,9,19)       0.00000       -0.00000       -0.00000      -0.00000
	         D(18,8,9,22)    -114.12911       -0.00019       -0.70547    -114.83458
	         D(19,9,8,22)     114.12911        0.00019        0.70547     114.83458
	        D(19,9,10,20)       0.00000        0.00008        0.39516       0.39516
	        D(19,9,10,22)    -117.43417       -0.00003       -0.02876    -117.46293
	        D(20,10,6,22)    -122.38585        0.00013        0.54267    -121.84317
	        D(20,10,9,22)     117.43417        0.00011        0.42392     117.85809
	        D(21,1,11,22)       0.00000       -0.00000       -0.00000      -0.00000
	            *R(21,22)       3.74587        0.00000        0.00000       3.74587
	-------------------------------------------------------------------------------

	                                 ==> Convergence Check <==                                  
    
	Measures of convergence in internal coordinates in au.
    
	Criteria marked as inactive (o), active & met (*), and active & unmet ( ).

	----------------------------------------------------------------------------------------------
	   Step    Total Energy     Delta E     Max Force     RMS Force      Max Disp      RMS Disp   
	----------------------------------------------------------------------------------------------
	  Convergence Criteria     1.00e-06 *    3.00e-04 *             o    1.20e-03 *             o
	----------------------------------------------------------------------------------------------
	     1    -785.13350234   -7.85e+02      2.78e-02      5.41e-03 o    1.68e-01      2.79e-02 o  ~
	----------------------------------------------------------------------------------------------

Next Geometry in Ang 
	Fragment 1 (Ang)

	    C   3.6541211844  -0.0000000024   1.2614552405
	    C   3.6779513297  -1.1557181941   0.4241308471
	    C   3.7207902145  -0.7164982966  -0.9363389310
	    C   3.7207901920   0.7164982998  -0.9363389281
	    C   3.6779512952   1.1557181911   0.4241308495
	    H  -3.6750286032   0.0000000054   1.2905357632
	    H  -3.6863565381  -1.1777106831   0.4385264298
	    H  -3.7081907633  -0.7318527744  -0.9498219384
	    H  -3.7081907589   0.7318527799  -0.9498219394
	    H  -3.6863565313   1.1777106908   0.4385264252
	   Mg   3.6331090097  -0.0000000039   2.3391474150
	    C   3.6747316330  -2.1831346077   0.7569365561
	    C   3.7496036250  -1.3509166320  -1.8099123679
	    C   3.7496035820   1.3509166384  -1.8099123628
	    C   3.6747315665   2.1831346027   0.7569365607
	    C  -3.6649749760   0.0000000073   2.3790242175
	    H  -3.6827208291  -2.2222352224   0.7769575527
	    H  -3.7177318781  -1.3772193182  -1.8385115832
	    H  -3.7177318698   1.3772193200  -1.8385115829
	    H  -3.6827208164   2.2222352323   0.7769575449
	    H   1.8711750817  -0.0000000309  -0.1578680437
	   Mg  -1.8745551496  -0.0000000020  -0.1250043765


    Structure for next step:
    Molecular point group: c1
    Full point group: C1

    Geometry (in Angstrom), charge = 0, multiplicity = 1:

    C       
    C             1         dcc
    C             2         dcc      1  108.050331
    C             3         dcc      2  107.884078      1   -0.107006
    C             4         dcc      3  107.884078      2    0.000000
    C             1         drr      2   91.089985      3   91.677722
    C             2         drr      3   91.875524      4   89.574466
    C             3         drr      4   90.118420      5   88.300436
    C             8         dcc      7  107.801979      6    0.085878
    C             9         dcc      8  107.801979      7   -0.000000
    H             1         dch      2  125.932898      3 -179.192643
    H             2         dch      3  125.828366      4 -179.525189
    H             3         dch      4  125.973602      5 -179.914428
    H             4         dch      5  126.142258      1 -179.807239
    H             5         dch      1  126.118484      2 -179.589567
    H             6         dch      7  125.885747      8  179.573480
    H             7         dch      8  125.755272      9  179.891554
    H             8         dch      9  125.985588     10 -179.714110
    H             9         dch     10  126.211752      6 -179.799164
    H            10         dch      6  126.160403      7  179.944168
    MG            1        dcbe     11       achbe      6   -0.000001
    MG            6        dcbe     16       achbe      1    0.000000

    achbe     =  127.6453978304
    dcbe      =    2.2902966062
    dcc       =    1.4583474180
    dch       =    1.0979892345
    drr       =    7.4290090806


Scratch directory: /tmp/929720.10.gen4.q/
gradient() will perform analytic gradient computation.
    SCF Algorithm Type (re)set to DF.
   => Libint2 <=

    Primary   basis highest AM E, G, H:  5, 4, 3
    Auxiliary basis highest AM E, G, H:  6, 5, 4
    Onebody   basis highest AM E, G, H:  6, 5, 4
    Solid Harmonics ordering:            gaussian

*** tstart() called on n039
*** at Thu Aug 24 03:53:13 2023

   => Loading Basis Set <=

    Name: CC-PVDZ
    Role: ORBITAL
    Keyword: BASIS
    atoms 1-10  entry C          line   138 file /opt/psi/4/1.9a/share/psi4/basis/cc-pvdz.gbs 
[...]
	           D(3,2,1,5)      -0.00120       -0.00000       -0.00087      -0.00207
	          D(3,2,1,11)     181.48169       -0.00000       -0.00031     181.48138
	          D(3,2,1,21)      63.41892        0.00000        0.00179      63.42071
	          D(3,2,21,4)     -37.57819       -0.00000       -0.00143     -37.57962
	          D(3,2,21,5)     -79.28767       -0.00000       -0.00015     -79.28781
	         D(3,2,21,22)     134.60457       -0.00001       -0.00285     134.60172
	          D(3,4,5,15)     178.30543        0.00000        0.00018     178.30561
	          D(3,4,5,21)     -64.45869        0.00001        0.00202     -64.45667
	          D(3,4,21,5)     115.81133        0.00000        0.00050     115.81184
	         D(3,4,21,22)    -132.06601        0.00000        0.00041    -132.06561
	          D(3,21,1,5)      79.15891        0.00001        0.00340      79.16232
	         D(3,21,1,11)    -158.95934        0.00000       -0.00012    -158.95946
	         D(3,21,2,12)    -121.44449        0.00000        0.00019    -121.44430
	          D(3,21,4,5)    -115.81133       -0.00000       -0.00050    -115.81184
	         D(3,21,4,14)     122.04364        0.00000        0.00014     122.04378
	          D(3,21,5,4)      37.62325        0.00000        0.00085      37.62410
	         D(3,21,5,15)     158.76940        0.00001        0.00482     158.77422
	         D(3,21,22,6)     133.30056       -0.00000        0.00002     133.30058
	         D(3,21,22,7)      49.63293        0.00001        0.00345      49.63638
	         D(3,21,22,8)     -15.89587       -0.00000       -0.00053     -15.89640
	         D(3,21,22,9)     -76.39164       -0.00000        0.00004     -76.39160
	        D(3,21,22,10)    -142.47416       -0.00000       -0.00128    -142.47543
	          D(4,3,2,12)     181.73576       -0.00000       -0.00002     181.73574
	          D(4,3,2,21)      64.01038        0.00000        0.00122      64.01160
	          D(4,3,21,5)     -37.55926        0.00000        0.00139     -37.55787
	         D(4,3,21,22)     133.47721       -0.00000       -0.00099     133.47622
	          D(4,5,1,11)     178.53635        0.00000        0.00056     178.53691
	          D(4,5,1,21)     -63.62131       -0.00000       -0.00029     -63.62160
	         D(4,5,21,22)    -135.44287        0.00001        0.00298    -135.43990
	          D(4,21,1,5)      37.39931        0.00000        0.00123      37.40054
	         D(4,21,1,11)     159.28106       -0.00001       -0.00229     159.27877
	         D(4,21,2,12)    -159.02267       -0.00000       -0.00124    -159.02392
	         D(4,21,3,13)    -121.69124       -0.00000       -0.00107    -121.69231
	         D(4,21,5,15)     121.14615        0.00001        0.00397     121.15012
	         D(4,21,22,6)    -135.42124       -0.00000       -0.00091    -135.42216
	         D(4,21,22,7)     140.91113        0.00001        0.00252     140.91365
	         D(4,21,22,8)      75.38232       -0.00000       -0.00146      75.38086
	         D(4,21,22,9)      14.88656       -0.00000       -0.00090      14.88566
	        D(4,21,22,10)     -51.19596       -0.00001       -0.00221     -51.19817
	          D(5,1,2,12)     178.23734       -0.00000       -0.00053     178.23681
	          D(5,1,2,21)     -63.42012       -0.00001       -0.00266     -63.42278
	         D(5,1,21,22)    -122.46575        0.00000        0.00139    -122.46435
	          D(5,4,3,13)     182.23250        0.00000        0.00046     182.23295
	          D(5,4,3,21)      64.66475        0.00000        0.00025      64.66499
	         D(5,4,21,22)     112.12265       -0.00000       -0.00009     112.12256
	         D(5,21,1,11)     121.88175       -0.00001       -0.00352     121.87822
	         D(5,21,2,12)     159.26785        0.00000        0.00004     159.26789
	         D(5,21,3,13)    -159.25050        0.00000        0.00032    -159.25018
	         D(5,21,4,14)    -122.14503        0.00000        0.00065    -122.14438
	         D(5,21,22,6)     -60.57111       -0.00001       -0.00388     -60.57500
	         D(5,21,22,7)    -144.23874       -0.00000       -0.00045    -144.23919
	         D(5,21,22,8)     150.23245       -0.00001       -0.00443     150.22802
	         D(5,21,22,9)      89.73669       -0.00001       -0.00387      89.73282
	        D(5,21,22,10)      23.65417       -0.00001       -0.00518      23.64899
	           D(6,7,8,9)      -0.01874        0.00000        0.00002      -0.01872
	          D(6,7,8,18)     181.53206       -0.00000       -0.00029     181.53177
	          D(6,7,8,22)      63.89203        0.00000        0.00112      63.89315
	          D(6,7,22,8)    -116.28530        0.00000        0.00150    -116.28380
	          D(6,7,22,9)     -78.95453       -0.00000       -0.00051     -78.95504
	         D(6,7,22,10)     -37.37108       -0.00000       -0.00112     -37.37219
	         D(6,7,22,21)     135.70404       -0.00001       -0.00378     135.70025
	          D(6,10,9,8)       0.03522       -0.00000       -0.00022       0.03500
	         D(6,10,9,19)     178.49750        0.00000        0.00043     178.49793
	         D(6,10,9,22)     -64.47973        0.00001        0.00229     -64.47744
	         D(6,10,22,7)      37.26772        0.00000        0.00067      37.26839
	         D(6,10,22,8)      78.60618        0.00001        0.00218      78.60836
	         D(6,10,22,9)     115.96844        0.00000        0.00013     115.96857
	        D(6,10,22,21)    -135.77852        0.00001        0.00345    -135.77507
	          D(6,22,7,8)     116.28530       -0.00000       -0.00150     116.28380
	         D(6,22,7,17)    -121.77542        0.00000        0.00037    -121.77505
	          D(6,22,8,7)     -37.22246       -0.00000       -0.00059     -37.22306
	          D(6,22,8,9)      78.95763        0.00000        0.00018      78.95780
	         D(6,22,8,18)    -159.32430        0.00000        0.00083    -159.32347
	          D(6,22,9,8)     -78.60049       -0.00000       -0.00134     -78.60183
	         D(6,22,9,10)      37.39020        0.00000        0.00061      37.39081
	         D(6,22,9,19)     159.28003       -0.00000       -0.00037     159.27966
	         D(6,22,10,9)    -115.96844       -0.00000       -0.00013    -115.96857
	        D(6,22,10,20)     122.09417       -0.00000       -0.00153     122.09264
	          D(7,6,10,9)      -0.04678        0.00000        0.00023      -0.04654
	         D(7,6,10,20)     178.00963       -0.00000       -0.00005     178.00958
	         D(7,6,10,22)     -64.33218       -0.00000       -0.00136     -64.33354
	          D(7,6,22,8)      37.16783        0.00000        0.00150      37.16933
	          D(7,6,22,9)      78.66331       -0.00000       -0.00067      78.66264
	         D(7,6,22,10)     116.09981       -0.00000       -0.00134     116.09847
	         D(7,6,22,21)    -121.69865        0.00000        0.00026    -121.69839
	          D(7,8,9,10)      -0.01019        0.00000        0.00013      -0.01007
	          D(7,8,9,19)     181.52818       -0.00000       -0.00054     181.52765
	          D(7,8,9,22)      64.27287       -0.00001       -0.00317      64.26971
	          D(7,8,22,9)    -116.18009       -0.00000       -0.00077    -116.18086
	         D(7,8,22,10)     -78.74718       -0.00000       -0.00154     -78.74872
	         D(7,8,22,21)     128.72779       -0.00000       -0.00144     128.72635
	         D(7,22,6,10)    -116.09981        0.00000        0.00134    -116.09847
	         D(7,22,6,16)     122.10923       -0.00000        0.00001     122.10924
	          D(7,22,8,9)     116.18009        0.00000        0.00077     116.18086
	         D(7,22,8,18)    -122.10184        0.00000        0.00143    -122.10041
	          D(7,22,9,8)     -37.19711       -0.00000       -0.00101     -37.19812
	         D(7,22,9,10)      78.79358        0.00000        0.00094      78.79452
	         D(7,22,9,19)    -159.31659       -0.00000       -0.00004    -159.31663
	         D(7,22,10,9)     -78.70071        0.00000        0.00053     -78.70018
	        D(7,22,10,20)     159.36189       -0.00000       -0.00087     159.36102
	          D(8,7,6,10)       0.04050       -0.00000       -0.00016       0.04034
	          D(8,7,6,16)     177.67973       -0.00000       -0.00055     177.67918
	          D(8,7,6,22)     -63.93593       -0.00001       -0.00311     -63.93904
	          D(8,7,22,9)      37.33077       -0.00001       -0.00201      37.32876
	         D(8,7,22,10)      78.91422       -0.00001       -0.00261      78.91161
	         D(8,7,22,21)    -108.01067       -0.00001       -0.00528    -108.01595
	         D(8,9,10,20)     181.97893        0.00000        0.00006     181.97898
	         D(8,9,10,22)      64.51495       -0.00001       -0.00251      64.51244
	         D(8,9,22,10)    -115.99069       -0.00001       -0.00195    -115.99264
	         D(8,9,22,21)     114.96348       -0.00000       -0.00025     114.96322
	         D(8,22,6,10)     -78.93198        0.00001        0.00284     -78.92914
	         D(8,22,6,16)     159.27706        0.00000        0.00151     159.27857
	         D(8,22,7,17)     121.93929        0.00001        0.00187     121.94116
	         D(8,22,9,10)     115.99069        0.00001        0.00195     115.99264
	         D(8,22,9,19)    -122.11948        0.00000        0.00098    -122.11851
	         D(8,22,10,9)     -37.36226        0.00001        0.00205     -37.36021
	        D(8,22,10,20)    -159.29966        0.00000        0.00065    -159.29901
	          D(9,8,7,17)     177.97812       -0.00000       -0.00038     177.97774
	          D(9,8,7,22)     -63.91077       -0.00000       -0.00111     -63.91187
	         D(9,8,22,10)      37.43291       -0.00000       -0.00077      37.43214
	         D(9,8,22,21)    -115.09212       -0.00000       -0.00067    -115.09279
	         D(9,10,6,16)     182.31368        0.00000        0.00063     182.31431
	         D(9,10,6,22)      64.28540        0.00000        0.00159      64.28700
	        D(9,10,22,21)     108.25304        0.00001        0.00331     108.25636
	         D(9,22,6,10)     -37.43650        0.00000        0.00067     -37.43583
	         D(9,22,6,16)    -159.22746       -0.00000       -0.00066    -159.22812
	         D(9,22,7,17)     159.27006       -0.00000       -0.00014     159.26992
	         D(9,22,8,18)     121.71807        0.00000        0.00066     121.71873
	        D(9,22,10,20)    -121.93740       -0.00000       -0.00140    -121.93879
	         D(10,6,7,17)     182.04095        0.00000        0.00022     182.04118
	         D(10,6,7,22)      63.97643        0.00001        0.00295      63.97938
	        D(10,6,22,21)     122.20155        0.00000        0.00160     122.20315
	         D(10,9,8,18)     178.44037        0.00000        0.00046     178.44083
	         D(10,9,8,22)     -64.28307        0.00001        0.00330     -64.27977
	        D(10,9,22,21)    -129.04583        0.00000        0.00170    -129.04414
	        D(10,22,6,16)    -121.79096       -0.00000       -0.00133    -121.79229
	        D(10,22,7,17)    -159.14649       -0.00000       -0.00075    -159.14724
	        D(10,22,8,18)     159.15098       -0.00000       -0.00011     159.15087
	        D(10,22,9,19)     121.88983       -0.00000       -0.00098     121.88885
	         D(11,1,2,12)      -0.27978        0.00000        0.00004      -0.27974
	         D(11,1,2,21)     118.06277       -0.00001       -0.00209     118.06067
	         D(11,1,5,15)       0.20367       -0.00000       -0.00047       0.20320
	         D(11,1,5,21)    -117.84234        0.00000        0.00085    -117.84149
	        D(11,1,21,22)      -0.58400       -0.00001       -0.00213      -0.58613
	         D(12,2,1,21)    -118.34254        0.00001        0.00213    -118.34041
	         D(12,2,3,13)      -0.46086       -0.00000       -0.00016      -0.46103
	         D(12,2,3,21)     117.72538       -0.00000       -0.00123     117.72414
	        D(12,2,21,22)      13.16008       -0.00001       -0.00266      13.15742
	         D(13,3,2,21)    -118.18624        0.00000        0.00107    -118.18517
	         D(13,3,4,14)      -0.01503        0.00000        0.00020      -0.01484
	         D(13,3,4,21)     117.56775        0.00000        0.00021     117.56796
	        D(13,3,21,22)      11.78596       -0.00001       -0.00206      11.78391
	         D(14,4,3,21)    -117.58278       -0.00000       -0.00002    -117.58280
	         D(14,4,5,15)       0.55125        0.00000        0.00037       0.55162
	         D(14,4,5,21)     117.78713        0.00001        0.00222     117.78935
	        D(14,4,21,22)     -10.02237        0.00000        0.00055     -10.02182
	         D(15,5,1,21)     118.04601       -0.00000       -0.00132     118.04469
	         D(15,5,4,21)    -117.23588       -0.00001       -0.00184    -117.23772
	        D(15,5,21,22)     -14.29672        0.00002        0.00695     -14.28977
	         D(16,6,7,17)      -0.31981       -0.00000       -0.00017      -0.31999
	         D(16,6,7,22)    -118.38434        0.00001        0.00255    -118.38178
	        D(16,6,10,20)       0.37009        0.00000        0.00034       0.37043
	        D(16,6,10,22)     118.02828       -0.00000       -0.00096     118.02731
	        D(16,6,22,21)       0.41059        0.00000        0.00027       0.41085
	         D(17,7,6,22)     118.06452       -0.00001       -0.00273     118.06180
	         D(17,7,8,18)      -0.47109       -0.00000       -0.00068      -0.47177
	         D(17,7,8,22)    -118.11112        0.00000        0.00073    -118.11039
	        D(17,7,22,21)      13.92862       -0.00001       -0.00342      13.92521
	         D(18,8,7,22)     117.64003       -0.00000       -0.00141     117.63862
	         D(18,8,9,19)      -0.02125       -0.00000       -0.00021      -0.02146
	         D(18,8,9,22)    -117.27656       -0.00001       -0.00284    -117.27940
	        D(18,8,22,21)       6.62595       -0.00000       -0.00001       6.62594
	         D(19,9,8,22)     117.25531        0.00001        0.00263     117.25794
	        D(19,9,10,20)       0.44120        0.00000        0.00071       0.44191
	        D(19,9,10,22)    -117.02278       -0.00000       -0.00186    -117.02464
	        D(19,9,22,21)      -7.15601        0.00000        0.00072      -7.15528
	        D(20,10,6,22)    -117.65819        0.00000        0.00131    -117.65688
	        D(20,10,9,22)     117.46398        0.00001        0.00257     117.46655
	       D(20,10,22,21)     -13.68435        0.00001        0.00192     -13.68244
	-------------------------------------------------------------------------------

	                                 ==> Convergence Check <==                                  
    
	Measures of convergence in internal coordinates in au.
    
	Criteria marked as inactive (o), active & met (*), and active & unmet ( ).

	----------------------------------------------------------------------------------------------
	   Step    Total Energy     Delta E     Max Force     RMS Force      Max Disp      RMS Disp   
	----------------------------------------------------------------------------------------------
	  Convergence Criteria     1.00e-06 *    3.00e-04 *             o    1.20e-03 *             o
	----------------------------------------------------------------------------------------------
	    50    -785.18766954    8.90e-06      8.01e-04      1.13e-04 o    3.82e-04 *    5.31e-05 o  ~
	----------------------------------------------------------------------------------------------

Next Geometry in Ang 
	Fragment 1 (Ang)

	    C   3.8538647060   0.8084846113  -0.5978971609
	    C   3.8538464541   0.8085029289   0.8337542981
	    C   3.8538578303  -0.5525183388   1.2780885375
	    C   3.8533390290  -1.3945682412   0.1200462741
	    C   3.8539364817  -0.5518177315  -1.0374099200
	    C  -3.8574519095   1.1722290909  -0.8349605129
	    C  -3.8575291400   1.1713619980   0.5973544075
	    C  -3.8575421290  -0.1894646211   1.0390284029
	    C  -3.8579178119  -1.0310061447  -0.1191602755
	    C  -3.8583764549  -0.1898321008  -1.2776679196
	    H   3.8767295070   1.6927393169  -1.2377813161
	    H   3.8809706731   1.6913104771   1.4755156379
	    H   3.8880319339  -0.8897378028   2.3159158739
	    H   3.8872365004  -2.4858124078   0.1191065848
	    H   3.8799866948  -0.8947423873  -2.0736041046
	    H  -3.8931936522   2.0551957672  -1.4761058638
	    H  -3.8884394085   2.0545675882   1.2384110014
	    H  -3.8812013268  -0.5275375826   2.0768552333
	    H  -3.8815664456  -2.1225126369  -0.1192809330
	    H  -3.8892361334  -0.5271340194  -2.3155724692
	   Mg   1.8314625277  -0.2033625723   0.1280206962
	   Mg  -1.8206939537   0.1757257599  -0.1287531675


    Structure for next step:
    Molecular point group: c1
    Full point group: C1

    Geometry (in Angstrom), charge = 0, multiplicity = 1:

    C       
    C             1         dcc
    C             2         dcc      1  108.079636
    C             3         dcc      2  107.941739      1   -0.022886
    C             4         dcc      3  107.919300      2    0.039041
    C             1         drr      2   91.758129      3   92.701391
    C             2         drr      3   93.105133      4   89.145083
    C             3         drr      4   90.128835      5   86.808952
    C             8         dcc      7  108.020694      6   -0.018721
    C             9         dcc      8  108.014989      7   -0.010067
    H             1         dch      2  125.881284      3 -178.518617
    H             2         dch      3  125.891350      4 -178.264260
    H             3         dch      4  125.957866      5 -177.767046
    H             4         dch      5  125.988245      1 -177.794402
    H             5         dch      1  126.205521      2 -178.307442
    H             6         dch      7  125.996624      8  177.679178
    H             7         dch      8  126.028507      9  177.977741
    H             8         dch      9  125.944566     10  178.440825
    H             9         dch     10  125.966222      6  178.497929
    H            10         dch      6  125.993546      7  178.009580
    MG            1        dcbe     11       achbe      6    0.303761
    MG            6        dcbe     16       achbe      1   -0.240668

    achbe     =  122.8233338271
    dcbe      =    2.3748959291
    dcc       =    1.4316822077
    dch       =    1.0917741333
    drr       =    7.7236420866


PsiException: Could not converge geometry optimization in 50 iterations.


Traceback (most recent call last):
  File "/opt/psi/4/1.9a/bin/psi4", line 372, in <module>
    exec(content)
  File "<string>", line 58, in <module>
  File "/opt/psi/4/1.9a/lib/psi4/driver/driver.py", line 1356, in optimize
    raise OptimizationConvergenceError("""geometry optimization""", n - 1, wfn)

psi4.driver.p4util.exceptions.OptimizationConvergenceError: Could not converge geometry optimization in 50 iterations.


Printing out the relevant lines from the Psithon --> Python processed input file:
        dch = 1.07749
        dcbe = 2.23403
        achbe = 128.09660
    """)
    core.set_local_option("OPTKING", "FROZEN_DISTANCE", "(""       21 22     "")")
--> energy = optimize("mp2/cc-pVDZ")
    mgcp.save_xyz_file("out/structs/dimgce_mgmg-" + str(os.environ["SGE_TASK_ID"]) + ".xyz", True)
    fstr = ""
    with open("out/structs/dimgce_mgmg-" + str(os.environ["SGE_TASK_ID"]) + ".xyz", "r") as fp :
        for line in fp :
            if len(line) == 0 :

!-------------------------------------------------------------!
!                                                             !
!  Could not converge geometry optimization in 50 iterations. !
!                                                             !
!-------------------------------------------------------------!

    Psi4 stopped on: Thursday, 24 August 2023 04:10AM
    Psi4 wall time for execution: 0:23:38.14

*** Psi4 encountered an error. Buy a developer more coffee!
*** Resources and help at github.com/psi4/psi4.
