
    -----------------------------------------------------------------------
          Psi4: An Open-Source Ab Initio Electronic Structure Package
                               Psi4 1.9a1.dev12 

                         Git: Rev {master} 6ebe472 dirty


    D. G. A. Smith, L. A. Burns, A. C. Simmonett, R. M. Parrish,
    M. C. Schieber, R. Galvelis, P. Kraus, H. Kruse, R. Di Remigio,
    A. Alenaizan, A. M. James, S. Lehtola, J. P. Misiewicz, M. Scheurer,
    R. A. Shaw, J. B. Schriber, Y. Xie, Z. L. Glick, D. A. Sirianni,
    J. S. O'Brien, J. M. Waldrop, A. Kumar, E. G. Hohenstein,
    B. P. Pritchard, B. R. Brooks, H. F. Schaefer III, A. Yu. Sokolov,
    K. Patkowski, A. E. DePrince III, U. Bozkaya, R. A. King,
    F. A. Evangelista, J. M. Turney, T. D. Crawford, C. D. Sherrill,
    J. Chem. Phys. 152(18) 184108 (2020). https://doi.org/10.1063/5.0006002

                            Additional Code Authors
    E. T. Seidl, C. L. Janssen, E. F. Valeev, M. L. Leininger,
    J. F. Gonthier, R. M. Richard, H. R. McAlexander, M. Saitow, X. Wang,
    P. Verma, M. H. Lechner, A. Jiang, S. Behnle, A. G. Heide,
    M. F. Herbst, and D. L. Poole

             Previous Authors, Complete List of Code Contributors,
                       and Citations for Specific Modules
    https://github.com/psi4/psi4/blob/master/codemeta.json
    https://github.com/psi4/psi4/graphs/contributors
    http://psicode.org/psi4manual/master/introduction.html#citing-psifour

    -----------------------------------------------------------------------


    Psi4 started on: Thursday, 24 August 2023 03:25AM

    Process ID: 7265
    Host:       n026
    PSIDATADIR: /opt/psi/4/1.9a/share/psi4
    Memory:     500.0 MiB
    Threads:    4
    
  ==> Input File <==

--------------------------------------------------------------------------
import os

set reference rhf

import numpy as np
import pickle
import time

print(os.environ["SGE_TASK_ID"])

dist_rr = np.linspace(5.5, 7.0, 10)[int(os.environ["SGE_TASK_ID"]) - 1]
radius = 1.40748 / (2 * math.sin(math.pi / 5))
angle_hcmg = 180 - 180 / math.pi * math.atan2((dist_rr - 2.35580) / 2, radius)
dist_cmg = math.hypot(radius, (dist_rr - 2.35580) / 2)

mgcp = geometry(f""" 
    0 1
    symmetry c1
    units angstrom

    C
    C 1 dcc
    C 2 dcc 1 108
    C 3 dcc 2 108 1 0
    C 4 dcc 3 108 2 0
    C 1 drr 2 90  3 90
    C 2 drr 3 90  4 90
    C 3 drr 4 90  5 90
    C 8 dcc 7 108 6 0
    C 9 dcc 8 108 7 0
    H 1 dch 2 126 3 180
    H 2 dch 3 126 4 180
    H 3 dch 4 126 5 180
    H 4 dch 5 126 1 180
    H 5 dch 1 126 2 180
    H 6 dch 7 126 8 180
    H 7 dch 8 126 9 180
    H 8 dch 9 126 10 180
    H 9 dch 10 126 6 180
    H 10 dch 6 126 7 180
    Mg 1 dcbe 11 achbe 6 0
    Mg 6 dcbe 16 achbe 1 0

    dcc = 1.40748
    drr = {dist_rr}
    dch = 1.07749
    dcbe = {dist_cmg}
    achbe = {angle_hcmg}

""")

set optking {
    frozen_distance = ("
        1 6
    ")
}

energy = optimize("mp2/cc-pVDZ")

mgcp.save_xyz_file("out/structs/dimgce-" + str(os.environ["SGE_TASK_ID"]) + ".xyz", True)

fstr = ""
with open("out/structs/dimgce-" + str(os.environ["SGE_TASK_ID"]) + ".xyz", "r") as fp :
    for line in fp :
        if len(line) == 0 :
            continue
        newline = line[0]
        for i in range(1, len(line)) :
            if line[i - 1].isupper() and line[i].isupper() :
                newline += line[i].lower()
            else :
                newline += line[i]
        fstr += newline
with open("out/structs/dimgce-" + str(os.environ["SGE_TASK_ID"]) + ".xyz", "w") as fp :
    print(fstr, file = fp)

while os.path.isfile(r"out/lock.dimgce_rr_energies.dat") :
    time.sleep(0.03)
with open(r"out/lock.dimgce_rr_energies.dat", "w+") as _ :
    with open("out/dimgce_rr_energies.dat", "ba+") as fp :
        fp.write(pickle.dumps(dist_rr))
        fp.write(pickle.dumps(energy))
os.remove(r"out/lock.dimgce_rr_energies.dat")

while os.path.isfile(r"out/lock.dimgce_rr_energies.txt") :
    time.sleep(0.03)

with open(r"out/lock.dimgce_rr_energies.txt", "w+") as _ :
    with open(r"out/dimgce_rr_energies.txt", "a+") as fp :
        print(f"Distance: {dist_rr}, Energy: {energy}", file = fp)
os.remove(r"out/lock.dimgce_rr_energies.txt")
--------------------------------------------------------------------------

Scratch directory: /tmp/929719.10.gen4.q/
gradient() will perform analytic gradient computation.
    SCF Algorithm Type (re)set to DF.
   => Libint2 <=

    Primary   basis highest AM E, G, H:  5, 4, 3
    Auxiliary basis highest AM E, G, H:  6, 5, 4
    Onebody   basis highest AM E, G, H:  6, 5, 4
    Solid Harmonics ordering:            gaussian

*** tstart() called on n026
*** at Thu Aug 24 03:25:50 2023

   => Loading Basis Set <=

    Name: CC-PVDZ
    Role: ORBITAL
    Keyword: BASIS
    atoms 1-10  entry C          line   138 file /opt/psi/4/1.9a/share/psi4/basis/cc-pvdz.gbs 
    atoms 11-20 entry H          line    22 file /opt/psi/4/1.9a/share/psi4/basis/cc-pvdz.gbs 
    atoms 21-22 entry MG         line   353 file /opt/psi/4/1.9a/share/psi4/basis/cc-pvdz.gbs 


         ---------------------------------------------------------
                                   SCF
               by Justin Turney, Rob Parrish, Andy Simmonett
                          and Daniel G. A. Smith
                              RHF Reference
                        4 Threads,    500 MiB Core
         ---------------------------------------------------------

  ==> Geometry <==

    Molecular point group: c1
    Full point group: D5h

    Geometry (in Angstrom), charge = 0, multiplicity = 1:

       Center              X                  Y                   Z               Mass       
    ------------   -----------------  -----------------  -----------------  -----------------
         C            3.500000000000     0.000000000000     1.197273999739    12.000000000000
         C            3.500000000000    -1.138675239243     0.369978012843    12.000000000000
         C            3.500000000000    -0.703740000000    -0.968615012712    12.000000000000
         C            3.500000000000     0.703740000000    -0.968615012712    12.000000000000
         C            3.500000000000     1.138675239243     0.369978012843    12.000000000000
         C           -3.500000000000     0.000000000000     1.197273999739    12.000000000000
         C           -3.500000000000    -1.138675239243     0.369978012843    12.000000000000
         C           -3.500000000000    -0.703740000000    -0.968615012712    12.000000000000
         C           -3.500000000000     0.703740000000    -0.968615012712    12.000000000000
         C           -3.500000000000     1.138675239243     0.369978012843    12.000000000000
         H            3.500000000000     0.000000000000     2.274763999739     1.007825032230
         H            3.500000000000    -2.163429124986     0.702940734112     1.007825032230
         H            3.500000000000    -1.337072731493    -1.840322733981     1.007825032230
         H            3.500000000000     1.337072731493    -1.840322733981     1.007825032230
         H            3.500000000000     2.163429124986     0.702940734112     1.007825032230
         H           -3.500000000000     0.000000000000     2.274763999739     1.007825032230
         H           -3.500000000000    -2.163429124986     0.702940734112     1.007825032230
         H           -3.500000000000    -1.337072731493    -1.840322733981     1.007825032230
         H           -3.500000000000     1.337072731493    -1.840322733981     1.007825032230
         H           -3.500000000000     2.163429124986     0.702940734112     1.007825032230
         MG           1.177900000000     0.000000000000     0.000000000000    23.985041697000
         MG          -1.177900000000     0.000000000000     0.000000000000    23.985041697000

  Running in c1 symmetry.

  Rotational constants: A =      0.07520  B =      0.00951  C =      0.00951 [cm^-1]
  Rotational constants: A =   2254.48328  B =    285.18688  C =    285.18688 [MHz]
  Nuclear repulsion =  677.471861638210839

  Charge       = 0
  Multiplicity = 1
  Electrons    = 94
  Nalpha       = 47
  Nbeta        = 47

  ==> Algorithm <==

  SCF Algorithm Type is DF.
  DIIS enabled.
  MOM disabled.
  Fractional occupation disabled.
  Guess Type is SAD.
  Energy threshold   = 1.00e-10
  Density threshold  = 1.00e-10
  Integral threshold = 1.00e-12

  ==> Primary Basis <==

  Basis Set: CC-PVDZ
    Blend: CC-PVDZ
    Number of shells: 106
    Number of basis functions: 226
    Number of Cartesian functions: 238
    Spherical Harmonics?: true
    Max angular momentum: 2

   => Loading Basis Set <=

    Name: (CC-PVDZ AUX)
    Role: JKFIT
    Keyword: DF_BASIS_SCF
    atoms 1-10  entry C          line   121 file /opt/psi/4/1.9a/share/psi4/basis/cc-pvdz-jkfit.gbs 
    atoms 11-20 entry H          line    51 file /opt/psi/4/1.9a/share/psi4/basis/cc-pvdz-jkfit.gbs 
    atoms 21-22 entry MG         line   576 file /opt/psi/4/1.9a/share/psi4/basis/def2-universal-jkfit.gbs 

  ==> Integral Setup <==

  ==> DiskDFJK: Density-Fitted J/K Matrices <==

    J tasked:                  Yes
    K tasked:                  Yes
    wK tasked:                  No
    OpenMP threads:              4
    Integrals threads:           4
    Memory [MiB]:              375
    Algorithm:                Core
    Integral Cache:           NONE
    Schwarz Cutoff:          1E-12
    Fitting Condition:       1E-10

   => Auxiliary Basis Set <=

  Basis Set: (CC-PVDZ AUX)
    Blend: CC-PVDZ-JKFIT + DEF2-UNIVERSAL-JKFIT
    Number of shells: 398
    Number of basis functions: 1154
    Number of Cartesian functions: 1334
    Spherical Harmonics?: true
    Max angular momentum: 4

  Minimum eigenvalue in the overlap matrix is 4.5258860158E-04.
  Reciprocal condition number of the overlap matrix is 6.0468740743E-05.
    Using symmetric orthogonalization.

  ==> Pre-Iterations <==

  SCF Guess: Superposition of Atomic Densities via on-the-fly atomic UHF (no occupation information).

   -------------------------
    Irrep   Nso     Nmo    
   -------------------------
     A        226     226 
   -------------------------
    Total     226     226
   -------------------------

  ==> Iterations <==

                           Total Energy        Delta E     RMS |[F,P]|

   @DF-RHF iter SAD:  -783.47020741705842   -7.83470e+02   0.00000e+00 
   @DF-RHF iter   1:  -783.41968950879232    5.05179e-02   3.05007e-03 DIIS/ADIIS
   @DF-RHF iter   2:  -783.64011940828118   -2.20430e-01   1.84220e-03 DIIS/ADIIS
   @DF-RHF iter   3:  -783.72971382659489   -8.95944e-02   2.37591e-04 DIIS/ADIIS
   @DF-RHF iter   4:  -783.73252032604705   -2.80650e-03   4.18406e-05 DIIS
   @DF-RHF iter   5:  -783.73258658388409   -6.62578e-05   1.03797e-05 DIIS
   @DF-RHF iter   6:  -783.73259211463142   -5.53075e-06   1.93319e-06 DIIS
   @DF-RHF iter   7:  -783.73259241000414   -2.95373e-07   4.05763e-07 DIIS
   @DF-RHF iter   8:  -783.73259242813447   -1.81303e-08   9.04110e-08 DIIS
   @DF-RHF iter   9:  -783.73259242903600   -9.01537e-10   1.42497e-08 DIIS
   @DF-RHF iter  10:  -783.73259242905783   -2.18279e-11   2.01760e-09 DIIS
   @DF-RHF iter  11:  -783.73259242905829   -4.54747e-13   3.99759e-10 DIIS
   @DF-RHF iter  12:  -783.73259242905920   -9.09495e-13   6.22585e-11 DIIS
  Energy and wave function converged.


  ==> Post-Iterations <==

    Orbital Energies [Eh]
    ---------------------

    Doubly Occupied:                                                      

       1A    -49.044527     2A    -49.044527     3A    -11.219856  
       4A    -11.219856     5A    -11.219139     6A    -11.219139  
       7A    -11.219137     8A    -11.219137     9A    -11.217881  
      10A    -11.217881    11A    -11.217881    12A    -11.217881  
      13A     -3.786213    14A     -3.785499    15A     -2.307662  
      16A     -2.304021    17A     -2.304021    18A     -2.303177  
      19A     -2.303177    20A     -2.301918    21A     -1.160183  
      22A     -1.160171    23A     -0.947062    24A     -0.947062  
      25A     -0.947054    26A     -0.947054    27A     -0.727480  
      28A     -0.727480    29A     -0.727477    30A     -0.727477  
      31A     -0.695544    32A     -0.695530    33A     -0.536345  
      34A     -0.536345    35A     -0.536306    36A     -0.536306  
      37A     -0.530147    38A     -0.525713    39A     -0.512684  
      40A     -0.512684    41A     -0.512684    42A     -0.512684  
      43A     -0.323957    44A     -0.302280    45A     -0.302280  
      46A     -0.299808    47A     -0.299808  

    Virtual:                                                              

      48A      0.034349    49A      0.034349    50A      0.087499  
      51A      0.128513    52A      0.150730    53A      0.150730  
      54A      0.194321    55A      0.211505    56A      0.211505  
      57A      0.213708    58A      0.213708    59A      0.214132  
      60A      0.214132    61A      0.214600    62A      0.233943  
      63A      0.255020    64A      0.256156    65A      0.256156  
      66A      0.256451    67A      0.256451    68A      0.276268  
      69A      0.276268    70A      0.281960    71A      0.281960  
      72A      0.346181    73A      0.372945    74A      0.372945  
      75A      0.399928    76A      0.408330    77A      0.408330  
      78A      0.418027    79A      0.418027    80A      0.429580  
      81A      0.429580    82A      0.464808    83A      0.464808  
      84A      0.472329    85A      0.472329    86A      0.491378  
      87A      0.491378    88A      0.543059    89A      0.543059  
      90A      0.549314    91A      0.550020    92A      0.636282  
      93A      0.636287    94A      0.662696    95A      0.662696  
      96A      0.698449    97A      0.699641    98A      0.749319  
      99A      0.749319   100A      0.753430   101A      0.753430  
     102A      0.759972   103A      0.759972   104A      0.803027  
     105A      0.820309   106A      0.830323   107A      0.830323  
     108A      0.848623   109A      0.848623   110A      0.864834  
     111A      0.864834   112A      0.871906   113A      0.871906  
     114A      0.887257   115A      0.887257   116A      0.893453  
     117A      0.893453   118A      0.953955   119A      0.953955  
     120A      0.959586   121A      0.962561   122A      0.973989  
     123A      0.973989   124A      0.979562   125A      0.979562  
     126A      1.055171   127A      1.055176   128A      1.056744  
     129A      1.111475   130A      1.157980   131A      1.157980  
     132A      1.167636   133A      1.167636   134A      1.231480  
     135A      1.231480   136A      1.232472   137A      1.232472  
     138A      1.251941   139A      1.284090   140A      1.284090  
     141A      1.291595   142A      1.291595   143A      1.292861  
     144A      1.292861   145A      1.297763   146A      1.297763  
     147A      1.432404   148A      1.463883   149A      1.470059  
     150A      1.470059   151A      1.542185   152A      1.542185  
     153A      1.556412   154A      1.556412   155A      1.573127  
     156A      1.585403   157A      1.585403   158A      1.597462  
     159A      1.764166   160A      1.764166   161A      1.765311  
     162A      1.765311   163A      1.802672   164A      1.802672  
     165A      1.825316   166A      1.825316   167A      1.900016  
     168A      1.902187   169A      1.902187   170A      1.905326  
     171A      1.905326   172A      1.943286   173A      1.949531  
     174A      1.965445   175A      1.968216   176A      1.968216  
     177A      1.977294   178A      1.977294   179A      2.038294  
     180A      2.038294   181A      2.059031   182A      2.059031  
     183A      2.067551   184A      2.067551   185A      2.071938  
     186A      2.071938   187A      2.145197   188A      2.145206  
     189A      2.177366   190A      2.177366   191A      2.178388  
     192A      2.178388   193A      2.269565   194A      2.269565  
     195A      2.301248   196A      2.301248   197A      2.343077  
     198A      2.343077   199A      2.349627   200A      2.349627  
     201A      2.350217   202A      2.350217   203A      2.487502  
     204A      2.487502   205A      2.487513   206A      2.487513  
     207A      2.724981   208A      2.724981   209A      2.732046  
     210A      2.732046   211A      2.752451   212A      2.767528  
     213A      2.888952   214A      2.888952   215A      2.906767  
     216A      2.906767   217A      2.991425   218A      2.991425  
     219A      3.000573   220A      3.000574   221A      3.003597  
     222A      3.003597   223A      3.650045   224A      3.650045  
     225A      3.657797   226A      3.657797  

    Final Occupation by Irrep:
              A 
    DOCC [    47 ]
    NA   [    47 ]
    NB   [    47 ]

  @DF-RHF Final Energy:  -783.73259242905920

   => Energetics <=

    Nuclear Repulsion Energy =            677.4718616382108394
    One-Electron Energy =               -2424.6846349976135571
    Two-Electron Energy =                 963.4801809303434084
    Total Energy =                       -783.7325924290593093

Computation Completed


Properties will be evaluated at   0.000000,   0.000000,   0.000000 [a0]

Properties computed using the SCF density matrix


 Multipole Moments:

 ------------------------------------------------------------------------------------
     Multipole            Electronic (a.u.)      Nuclear  (a.u.)        Total (a.u.)
 ------------------------------------------------------------------------------------

 L = 1.  Multiply by 2.5417464519 to convert [e a0] to [Debye]
 Dipole X            :         -0.0000000           -0.0000000           -0.0000000
 Dipole Y            :         -0.0000000            0.0000000           -0.0000000
 Dipole Z            :         -0.0000000            0.0000000           -0.0000000
 Magnitude           :                                                    0.0000000

 ------------------------------------------------------------------------------------

*** tstop() called on n026 at Thu Aug 24 03:25:59 2023
Module time:
	user time   =      27.72 seconds =       0.46 minutes
	system time =       0.46 seconds =       0.01 minutes
	total time  =          9 seconds =       0.15 minutes
Total time:
	user time   =      27.72 seconds =       0.46 minutes
	system time =       0.46 seconds =       0.01 minutes
	total time  =          9 seconds =       0.15 minutes

*** tstart() called on n026
*** at Thu Aug 24 03:25:59 2023


  //>>>>>>>>>>>>>>>>>>>>>>>>>>>>>>>>>>>//
  //               DFMP2               //
  //<<<<<<<<<<<<<<<<<<<<<<<<<<<<<<<<<<<//

   => Loading Basis Set <=

    Name: (CC-PVDZ AUX)
    Role: RIFIT
    Keyword: DF_BASIS_MP2
    atoms 1-10  entry C          line   159 file /opt/psi/4/1.9a/share/psi4/basis/cc-pvdz-ri.gbs 
    atoms 11-20 entry H          line    19 file /opt/psi/4/1.9a/share/psi4/basis/cc-pvdz-ri.gbs 
    atoms 21-22 entry MG         line   399 file /opt/psi/4/1.9a/share/psi4/basis/cc-pvdz-ri.gbs 

	 --------------------------------------------------------
	                          DF-MP2                         
	      2nd-Order Density-Fitted Moller-Plesset Theory     
	              RMP2 Wavefunction,   4 Threads             
	                                                         
	        Rob Parrish, Justin Turney, Andy Simmonett,      
	           Ed Hohenstein, and C. David Sherrill          
	 --------------------------------------------------------

   => Auxiliary Basis Set <=

  Basis Set: (CC-PVDZ AUX)
    Blend: CC-PVDZ-RI
    Number of shells: 288
    Number of basis functions: 852
    Number of Cartesian functions: 990
    Spherical Harmonics?: true
    Max angular momentum: 3

	 --------------------------------------------------------
	                 NBF =   226, NAUX =   852
	 --------------------------------------------------------
	   CLASS    FOCC     OCC    AOCC    AVIR     VIR    FVIR
	   PAIRS       0      47      47     179     179       0
	 --------------------------------------------------------


         ------------------------------------------------------------
                                     CPHF                           
                                  Rob Parrish                       
         ------------------------------------------------------------

  ==> Geometry <==

    Molecular point group: c1
    Full point group: D5h

    Geometry (in Angstrom), charge = 0, multiplicity = 1:

       Center              X                  Y                   Z               Mass       
    ------------   -----------------  -----------------  -----------------  -----------------
         C            3.500000000000     0.000000000000     1.197273999739    12.000000000000
         C            3.500000000000    -1.138675239243     0.369978012843    12.000000000000
         C            3.500000000000    -0.703740000000    -0.968615012712    12.000000000000
         C            3.500000000000     0.703740000000    -0.968615012712    12.000000000000
         C            3.500000000000     1.138675239243     0.369978012843    12.000000000000
         C           -3.500000000000     0.000000000000     1.197273999739    12.000000000000
         C           -3.500000000000    -1.138675239243     0.369978012843    12.000000000000
         C           -3.500000000000    -0.703740000000    -0.968615012712    12.000000000000
         C           -3.500000000000     0.703740000000    -0.968615012712    12.000000000000
         C           -3.500000000000     1.138675239243     0.369978012843    12.000000000000
         H            3.500000000000     0.000000000000     2.274763999739     1.007825032230
         H            3.500000000000    -2.163429124986     0.702940734112     1.007825032230
         H            3.500000000000    -1.337072731493    -1.840322733981     1.007825032230
         H            3.500000000000     1.337072731493    -1.840322733981     1.007825032230
         H            3.500000000000     2.163429124986     0.702940734112     1.007825032230
         H           -3.500000000000     0.000000000000     2.274763999739     1.007825032230
         H           -3.500000000000    -2.163429124986     0.702940734112     1.007825032230
         H           -3.500000000000    -1.337072731493    -1.840322733981     1.007825032230
         H           -3.500000000000     1.337072731493    -1.840322733981     1.007825032230
         H           -3.500000000000     2.163429124986     0.702940734112     1.007825032230
         MG           1.177900000000     0.000000000000     0.000000000000    23.985041697000
         MG          -1.177900000000     0.000000000000     0.000000000000    23.985041697000

  Nuclear repulsion =  677.471861638211067
  Reference energy  = -783.732592429059196

  ==> Basis Set <==

  Basis Set: CC-PVDZ
    Blend: CC-PVDZ
    Number of shells: 106
    Number of basis functions: 226
    Number of Cartesian functions: 238
    Spherical Harmonics?: true
    Max angular momentum: 2

  ==> CGRSolver (by Rob Parrish) <==

   Number of roots    =         1
   Preconditioning    =    JACOBI
   Convergence cutoff =     1E-06
   Maximum iterations =       100

  ==> CPHFRHamiltonian (by Rob Parrish) <== 

  ==> DiskDFJK: Density-Fitted J/K Matrices <==

    J tasked:                  Yes
    K tasked:                  Yes
    wK tasked:                  No
    OpenMP threads:              4
    Integrals threads:           4
    Memory [MiB]:              375
    Algorithm:                Core
    Integral Cache:           NONE
    Schwarz Cutoff:          1E-12
    Fitting Condition:       1E-10

   => Auxiliary Basis Set <=

  Basis Set: (CC-PVDZ AUX)
    Blend: CC-PVDZ-JKFIT + DEF2-UNIVERSAL-JKFIT
    Number of shells: 398
    Number of basis functions: 1154
    Number of Cartesian functions: 1334
    Spherical Harmonics?: true
    Max angular momentum: 4

  ==> CPHF Iterations <==

  => Iterations <=

             Iter  Converged  Remaining    Residual
  CGR           1          0          1   8.473E-02
  CGR           2          0          1   1.181E-02
  CGR           3          0          1   2.491E-03
  CGR           4          0          1   6.275E-04
  CGR           5          0          1   1.616E-04
  CGR           6          0          1   2.932E-05
  CGR           7          0          1   4.526E-06
  CGR           8          1          0   5.980E-07

    CGRSolver converged.

  ==> DFCorrGrad: Density-Fitted Correlated Gradients <==

    OpenMP threads:              4
    Integrals threads:           4
    Memory [GiB]:            0.366
    Schwarz Cutoff:          0E+00
    Fitting Condition:       1E-10

   => Auxiliary Basis Set <=

  Basis Set: (CC-PVDZ AUX)
    Blend: CC-PVDZ-JKFIT + DEF2-UNIVERSAL-JKFIT
    Number of shells: 398
    Number of basis functions: 1154
    Number of Cartesian functions: 1334
    Spherical Harmonics?: true
    Max angular momentum: 4

	-----------------------------------------------------------
	 ==================> DF-MP2 Energies <==================== 
	-----------------------------------------------------------
	 Reference Energy          =    -783.7325924290591956 [Eh]
	 Singles Energy            =      -0.0000000000000000 [Eh]
	 Same-Spin Energy          =      -0.3828180642820227 [Eh]
	 Opposite-Spin Energy      =      -1.0550726448479175 [Eh]
	 Correlation Energy        =      -1.4378907091299402 [Eh]
	 Total Energy              =    -785.1704831381891836 [Eh]
	-----------------------------------------------------------
	 ================> DF-SCS-MP2 Energies <================== 
	-----------------------------------------------------------
	 SCS Same-Spin Scale       =       0.3333333333333333 [-]
	 SCS Opposite-Spin Scale   =       1.2000000000000000 [-]
	 SCS Same-Spin Energy      =      -0.1276060214273409 [Eh]
	 SCS Opposite-Spin Energy  =      -1.2660871738175010 [Eh]
	 SCS Correlation Energy    =      -1.3936931952448419 [Eh]
	 SCS Total Energy          =    -785.1262856243040460 [Eh]
	-----------------------------------------------------------


  -Total Gradient:
     Atom            X                  Y                   Z
    ------   -----------------  -----------------  -----------------
       1        0.009749439615     0.000000002244    -0.013961378413
       2        0.009749439702     0.013278059971    -0.004314304286
       3        0.009749439642     0.008206293317     0.011294991923
       4        0.009749439636    -0.008206292025     0.011294993076
       5        0.009749439448    -0.013278058779    -0.004314303359
       6       -0.009749442710    -0.000000001246    -0.013961378983
       7       -0.009749442949     0.013278060107    -0.004314304228
       8       -0.009749442742     0.008206290568     0.011294994523
       9       -0.009749442888    -0.008206294195     0.011294993580
      10       -0.009749443081    -0.013278061759    -0.004314302448
      11       -0.002368486479    -0.000000000254    -0.011264417908
      12       -0.002368486499     0.010713097269    -0.003480896240
      13       -0.002368486499     0.006621058844     0.009113105892
      14       -0.002368486488    -0.006621059351     0.009113106191
      15       -0.002368486472    -0.010713100137    -0.003480897183
      16        0.002368486850     0.000000000195    -0.011264419265
      17        0.002368486879     0.010713100479    -0.003480897296
      18        0.002368486852     0.006621059900     0.009113106615
      19        0.002368486856    -0.006621057916     0.009113104616
      20        0.002368486891    -0.010713097625    -0.003480896616
      21       -0.093136006914    -0.000000000960     0.000000000260
      22        0.093136021348     0.000000001355    -0.000000000452


*** tstop() called on n026 at Thu Aug 24 03:26:28 2023
Module time:
	user time   =     102.90 seconds =       1.72 minutes
	system time =       1.48 seconds =       0.02 minutes
	total time  =         29 seconds =       0.48 minutes
Total time:
	user time   =     130.63 seconds =       2.18 minutes
	system time =       1.94 seconds =       0.03 minutes
	total time  =         38 seconds =       0.63 minutes

    			-----------------------------------------

    			 OPTKING 3.0: for geometry optimizations 

    			     By R.A. King, Bethel University     

    			        with contributions from          

    			    A.V. Copan, J. Cayton, A. Heide      

    			-----------------------------------------

    
	                            ===> Fragment 1 <== 

	 Z (Atomic Numbers)          Masses                          Geom                  
	       6.000000            12.000000          6.61404144  0.00000000  2.26251996   
	       6.000000            12.000000          6.61404144 -2.15178435  0.69915712   
	       6.000000            12.000000          6.61404144 -1.32987586 -1.83041710   
	       6.000000            12.000000          6.61404144  1.32987586 -1.83041710   
	       6.000000            12.000000          6.61404144  2.15178435  0.69915712   
	       6.000000            12.000000         -6.61404144  0.00000000  2.26251996   
	       6.000000            12.000000         -6.61404144 -2.15178435  0.69915712   
	       6.000000            12.000000         -6.61404144 -1.32987586 -1.83041710   
	       6.000000            12.000000         -6.61404144  1.32987586 -1.83041710   
	       6.000000            12.000000         -6.61404144  2.15178435  0.69915712   
	       1.000000             1.007825          6.61404144  0.00000000  4.29868096   
	       1.000000             1.007825          6.61404144 -4.08828854  1.32836547   
	       1.000000             1.007825          6.61404144 -2.52670127 -3.47770595   
	       1.000000             1.007825          6.61404144  2.52670127 -3.47770595   
	       1.000000             1.007825          6.61404144  4.08828854  1.32836547   
	       1.000000             1.007825         -6.61404144  0.00000000  4.29868096   
	       1.000000             1.007825         -6.61404144 -4.08828854  1.32836547   
	       1.000000             1.007825         -6.61404144 -2.52670127 -3.47770595   
	       1.000000             1.007825         -6.61404144  2.52670127 -3.47770595   
	       1.000000             1.007825         -6.61404144  4.08828854  1.32836547   
	      12.000000            23.985042          2.22590840  0.00000000  0.00000000   
	      12.000000            23.985042         -2.22590840  0.00000000  0.00000000   

	 - Coordinate -           - BOHR/RAD -       - ANG/DEG -
	 R(1,2)           =         2.659752           1.407480
	 R(1,5)           =         2.659752           1.407480
	 R(1,11)          =         2.036161           1.077490
	 R(1,21)          =         4.937075           2.612587
	 R(2,3)           =         2.659752           1.407480
	 R(2,12)          =         2.036161           1.077490
	 R(2,21)          =         4.937075           2.612587
	 R(3,4)           =         2.659752           1.407480
	 R(3,13)          =         2.036161           1.077490
	 R(3,21)          =         4.937075           2.612587
	 R(4,5)           =         2.659752           1.407480
	 R(4,14)          =         2.036161           1.077490
	 R(4,21)          =         4.937075           2.612587
	 R(5,15)          =         2.036161           1.077490
	 R(5,21)          =         4.937075           2.612587
	 R(6,7)           =         2.659752           1.407480
	 R(6,10)          =         2.659752           1.407480
	 R(6,16)          =         2.036161           1.077490
	 R(6,22)          =         4.937075           2.612587
	 R(7,8)           =         2.659752           1.407480
	 R(7,17)          =         2.036161           1.077490
	 R(7,22)          =         4.937075           2.612587
	 R(8,9)           =         2.659752           1.407480
	 R(8,18)          =         2.036161           1.077490
	 R(8,22)          =         4.937075           2.612587
	 R(9,10)          =         2.659752           1.407480
	 R(9,19)          =         2.036161           1.077490
	 R(9,22)          =         4.937075           2.612587
	 R(10,20)         =         2.036161           1.077490
	 R(10,22)         =         4.937075           2.612587
	 R(21,22)         =         4.451817           2.355800
	 B(1,2,3)         =         1.884956         108.000000
	 B(1,2,12)        =         2.199115         126.000000
	 B(1,2,21)        =         1.298063          74.373507
	 B(1,5,4)         =         1.884956         108.000000
	 B(1,5,15)        =         2.199115         126.000000
	 B(1,5,21)        =         1.298063          74.373507
	 B(1,21,2)        =         0.545467          31.252985
	 B(1,21,3)        =         0.901947          51.677762
	 B(1,21,4)        =         0.901947          51.677762
	 B(1,21,5)        =         0.545467          31.252985
	 B(1,21,22)       =         2.665543         152.724383
	 B(2,1,5)         =         1.884956         108.000000
	 B(2,1,11)        =         2.199115         126.000000
	 B(2,1,21)        =         1.298063          74.373507
	 B(2,3,4)         =         1.884956         108.000000
	 B(2,3,13)        =         2.199115         126.000000
	 B(2,3,21)        =         1.298063          74.373507
	 B(2,21,3)        =         0.545467          31.252985
	 B(2,21,4)        =         0.901947          51.677762
	 B(2,21,5)        =         0.901947          51.677762
	 B(2,21,22)       =         2.665543         152.724383
	 B(3,2,12)        =         2.199115         126.000000
	 B(3,2,21)        =         1.298063          74.373507
	 B(3,4,5)         =         1.884956         108.000000
	 B(3,4,14)        =         2.199115         126.000000
	 B(3,4,21)        =         1.298063          74.373507
	 B(3,21,4)        =         0.545467          31.252985
	 B(3,21,5)        =         0.901947          51.677762
	 B(3,21,22)       =         2.665543         152.724383
	 B(4,3,13)        =         2.199115         126.000000
	 B(4,3,21)        =         1.298063          74.373507
	 B(4,5,15)        =         2.199115         126.000000
	 B(4,5,21)        =         1.298063          74.373507
	 B(4,21,5)        =         0.545467          31.252985
	 B(4,21,22)       =         2.665543         152.724383
	 B(5,1,11)        =         2.199115         126.000000
	 B(5,1,21)        =         1.298063          74.373507
	 B(5,4,14)        =         2.199115         126.000000
	 B(5,4,21)        =         1.298063          74.373507
	 B(5,21,22)       =         2.665543         152.724383
	 B(6,7,8)         =         1.884956         108.000000
	 B(6,7,17)        =         2.199115         126.000000
	 B(6,7,22)        =         1.298063          74.373507
	 B(6,10,9)        =         1.884956         108.000000
	 B(6,10,20)       =         2.199115         126.000000
	 B(6,10,22)       =         1.298063          74.373507
	 B(6,22,7)        =         0.545467          31.252985
	 B(6,22,8)        =         0.901947          51.677762
	 B(6,22,9)        =         0.901947          51.677762
	 B(6,22,10)       =         0.545467          31.252985
	 B(6,22,21)       =         2.665543         152.724383
	 B(7,6,10)        =         1.884956         108.000000
	 B(7,6,16)        =         2.199115         126.000000
	 B(7,6,22)        =         1.298063          74.373507
	 B(7,8,9)         =         1.884956         108.000000
	 B(7,8,18)        =         2.199115         126.000000
	 B(7,8,22)        =         1.298063          74.373507
	 B(7,22,8)        =         0.545467          31.252985
	 B(7,22,9)        =         0.901947          51.677762
	 B(7,22,10)       =         0.901947          51.677762
	 B(7,22,21)       =         2.665543         152.724383
	 B(8,7,17)        =         2.199115         126.000000
	 B(8,7,22)        =         1.298063          74.373507
	 B(8,9,10)        =         1.884956         108.000000
	 B(8,9,19)        =         2.199115         126.000000
	 B(8,9,22)        =         1.298063          74.373507
	 B(8,22,9)        =         0.545467          31.252985
	 B(8,22,10)       =         0.901947          51.677762
	 B(8,22,21)       =         2.665543         152.724383
	 B(9,8,18)        =         2.199115         126.000000
	 B(9,8,22)        =         1.298063          74.373507
	 B(9,10,20)       =         2.199115         126.000000
	 B(9,10,22)       =         1.298063          74.373507
	 B(9,22,10)       =         0.545467          31.252985
	 B(9,22,21)       =         2.665543         152.724383
	 B(10,6,16)       =         2.199115         126.000000
	 B(10,6,22)       =         1.298063          74.373507
	 B(10,9,19)       =         2.199115         126.000000
	 B(10,9,22)       =         1.298063          74.373507
	 B(10,22,21)      =         2.665543         152.724383
	 B(11,1,21)       =         2.046846         117.275617
	 B(12,2,21)       =         2.046846         117.275617
	 B(13,3,21)       =         2.046846         117.275617
	 B(14,4,21)       =         2.046846         117.275617
	 B(15,5,21)       =         2.046846         117.275617
	 B(16,6,22)       =         2.046846         117.275617
	 B(17,7,22)       =         2.046846         117.275617
	 B(18,8,22)       =         2.046846         117.275617
	 B(19,9,22)       =         2.046846         117.275617
	 B(20,10,22)      =         2.046846         117.275617
	 D(1,2,3,4)       =         0.000000           0.000000
	 D(1,2,3,13)      =         3.141593         180.000000
	 D(1,2,3,21)      =        -1.175611         -67.357573
	 D(1,2,21,3)      =         1.994815         114.294489
	 D(1,2,21,4)      =         1.347882          77.227946
	 D(1,2,21,5)      =         0.646933          37.066544
	 D(1,2,21,22)     =        -2.144185        -122.852755
	 D(1,5,4,3)       =         0.000000           0.000000
	 D(1,5,4,14)      =         3.141593         180.000000
	 D(1,5,4,21)      =         1.175611          67.357573
	 D(1,5,21,2)      =        -0.646933         -37.066544
	 D(1,5,21,3)      =        -1.347882         -77.227946
	 D(1,5,21,4)      =        -1.994815        -114.294489
	 D(1,5,21,22)     =         2.144185         122.852755
	 D(1,21,2,3)      =        -1.994815        -114.294489
	 D(1,21,2,12)     =         2.144185         122.852755
	 D(1,21,3,2)      =         0.646933          37.066544
	 D(1,21,3,4)      =        -1.347882         -77.227946
	 D(1,21,3,13)     =         2.791118         159.919299
	 D(1,21,4,3)      =         1.347882          77.227946
	 D(1,21,4,5)      =        -0.646933         -37.066544
	 D(1,21,4,14)     =        -2.791118        -159.919299
	 D(1,21,5,4)      =         1.994815         114.294489
	 D(1,21,5,15)     =        -2.144185        -122.852755
	 D(1,21,22,6)     =         0.000000           0.000000
	 D(1,21,22,7)     =        -1.256637         -72.000000
	 D(1,21,22,8)     =        -2.513274        -144.000000
	 D(1,21,22,9)     =         2.513274         144.000000
	 D(1,21,22,10)    =         1.256637          72.000000
	 D(2,1,5,4)       =         0.000000           0.000000
	 D(2,1,5,15)      =         3.141593         180.000000
	 D(2,1,5,21)      =         1.175611          67.357573
	 D(2,1,21,3)      =        -0.646933         -37.066544
	 D(2,1,21,4)      =        -1.347882         -77.227946
	 D(2,1,21,5)      =        -1.994815        -114.294489
	 D(2,1,21,22)     =         2.144185         122.852755
	 D(2,3,4,5)       =         0.000000           0.000000
	 D(2,3,4,14)      =         3.141593         180.000000
	 D(2,3,4,21)      =        -1.175611         -67.357573
	 D(2,3,21,4)      =         1.994815         114.294489
	 D(2,3,21,5)      =         1.347882          77.227946
	 D(2,3,21,22)     =        -2.144185        -122.852755
	 D(2,21,1,5)      =         1.994815         114.294489
	 D(2,21,1,11)     =        -2.144185        -122.852755
	 D(2,21,3,4)      =        -1.994815        -114.294489
	 D(2,21,3,13)     =         2.144185         122.852755
	 D(2,21,4,3)      =         0.646933          37.066544
	 D(2,21,4,5)      =        -1.347882         -77.227946
	 D(2,21,4,14)     =         2.791118         159.919299
	 D(2,21,5,4)      =         1.347882          77.227946
	 D(2,21,5,15)     =        -2.791118        -159.919299
	 D(2,21,22,6)     =         1.256637          72.000000
	 D(2,21,22,7)     =        -0.000000          -0.000000
	 D(2,21,22,8)     =        -1.256637         -72.000000
	 D(2,21,22,9)     =        -2.513274        -144.000000
	 D(2,21,22,10)    =         2.513274         144.000000
	 D(3,2,1,5)       =         0.000000           0.000000
	 D(3,2,1,11)      =         3.141593         180.000000
	 D(3,2,1,21)      =         1.175611          67.357573
	 D(3,2,21,4)      =        -0.646933         -37.066544
	 D(3,2,21,5)      =        -1.347882         -77.227946
	 D(3,2,21,22)     =         2.144185         122.852755
	 D(3,4,5,15)      =         3.141593         180.000000
	 D(3,4,5,21)      =        -1.175611         -67.357573
	 D(3,4,21,5)      =         1.994815         114.294489
	 D(3,4,21,22)     =        -2.144185        -122.852755
	 D(3,21,1,5)      =         1.347882          77.227946
	 D(3,21,1,11)     =        -2.791118        -159.919299
	 D(3,21,2,12)     =        -2.144185        -122.852755
	 D(3,21,4,5)      =        -1.994815        -114.294489
	 D(3,21,4,14)     =         2.144185         122.852755
	 D(3,21,5,4)      =         0.646933          37.066544
	 D(3,21,5,15)     =         2.791118         159.919299
	 D(3,21,22,6)     =         2.513274         144.000000
	 D(3,21,22,7)     =         1.256637          72.000000
	 D(3,21,22,8)     =         0.000000           0.000000
	 D(3,21,22,9)     =        -1.256637         -72.000000
	 D(3,21,22,10)    =        -2.513274        -144.000000
	 D(4,3,2,12)      =         3.141593         180.000000
	 D(4,3,2,21)      =         1.175611          67.357573
	 D(4,3,21,5)      =        -0.646933         -37.066544
	 D(4,3,21,22)     =         2.144185         122.852755
	 D(4,5,1,11)      =         3.141593         180.000000
	 D(4,5,1,21)      =        -1.175611         -67.357573
	 D(4,5,21,22)     =        -2.144185        -122.852755
	 D(4,21,1,5)      =         0.646933          37.066544
	 D(4,21,1,11)     =         2.791118         159.919299
	 D(4,21,2,12)     =        -2.791118        -159.919299
	 D(4,21,3,13)     =        -2.144185        -122.852755
	 D(4,21,5,15)     =         2.144185         122.852755
	 D(4,21,22,6)     =        -2.513274        -144.000000
	 D(4,21,22,7)     =         2.513274         144.000000
	 D(4,21,22,8)     =         1.256637          72.000000
	 D(4,21,22,9)     =        -0.000000          -0.000000
	 D(4,21,22,10)    =        -1.256637         -72.000000
	 D(5,1,2,12)      =         3.141593         180.000000
	 D(5,1,2,21)      =        -1.175611         -67.357573
	 D(5,1,21,22)     =        -2.144185        -122.852755
	 D(5,4,3,13)      =         3.141593         180.000000
	 D(5,4,3,21)      =         1.175611          67.357573
	 D(5,4,21,22)     =         2.144185         122.852755
	 D(5,21,1,11)     =         2.144185         122.852755
	 D(5,21,2,12)     =         2.791118         159.919299
	 D(5,21,3,13)     =        -2.791118        -159.919299
	 D(5,21,4,14)     =        -2.144185        -122.852755
	 D(5,21,22,6)     =        -1.256637         -72.000000
	 D(5,21,22,7)     =        -2.513274        -144.000000
	 D(5,21,22,8)     =         2.513274         144.000000
	 D(5,21,22,9)     =         1.256637          72.000000
	 D(5,21,22,10)    =        -0.000000          -0.000000
	 D(6,7,8,9)       =         0.000000           0.000000
	 D(6,7,8,18)      =         3.141593         180.000000
	 D(6,7,8,22)      =         1.175611          67.357573
	 D(6,7,22,8)      =        -1.994815        -114.294489
	 D(6,7,22,9)      =        -1.347882         -77.227946
	 D(6,7,22,10)     =        -0.646933         -37.066544
	 D(6,7,22,21)     =         2.144185         122.852755
	 D(6,10,9,8)      =         0.000000           0.000000
	 D(6,10,9,19)     =         3.141593         180.000000
	 D(6,10,9,22)     =        -1.175611         -67.357573
	 D(6,10,22,7)     =         0.646933          37.066544
	 D(6,10,22,8)     =         1.347882          77.227946
	 D(6,10,22,9)     =         1.994815         114.294489
	 D(6,10,22,21)    =        -2.144185        -122.852755
	 D(6,22,7,8)      =         1.994815         114.294489
	 D(6,22,7,17)     =        -2.144185        -122.852755
	 D(6,22,8,7)      =        -0.646933         -37.066544
	 D(6,22,8,9)      =         1.347882          77.227946
	 D(6,22,8,18)     =        -2.791118        -159.919299
	 D(6,22,9,8)      =        -1.347882         -77.227946
	 D(6,22,9,10)     =         0.646933          37.066544
	 D(6,22,9,19)     =         2.791118         159.919299
	 D(6,22,10,9)     =        -1.994815        -114.294489
	 D(6,22,10,20)    =         2.144185         122.852755
	 D(7,6,10,9)      =         0.000000           0.000000
	 D(7,6,10,20)     =         3.141593         180.000000
	 D(7,6,10,22)     =        -1.175611         -67.357573
	 D(7,6,22,8)      =         0.646933          37.066544
	 D(7,6,22,9)      =         1.347882          77.227946
	 D(7,6,22,10)     =         1.994815         114.294489
	 D(7,6,22,21)     =        -2.144185        -122.852755
	 D(7,8,9,10)      =         0.000000           0.000000
	 D(7,8,9,19)      =         3.141593         180.000000
	 D(7,8,9,22)      =         1.175611          67.357573
	 D(7,8,22,9)      =        -1.994815        -114.294489
	 D(7,8,22,10)     =        -1.347882         -77.227946
	 D(7,8,22,21)     =         2.144185         122.852755
	 D(7,22,6,10)     =        -1.994815        -114.294489
	 D(7,22,6,16)     =         2.144185         122.852755
	 D(7,22,8,9)      =         1.994815         114.294489
	 D(7,22,8,18)     =        -2.144185        -122.852755
	 D(7,22,9,8)      =        -0.646933         -37.066544
	 D(7,22,9,10)     =         1.347882          77.227946
	 D(7,22,9,19)     =        -2.791118        -159.919299
	 D(7,22,10,9)     =        -1.347882         -77.227946
	 D(7,22,10,20)    =         2.791118         159.919299
	 D(8,7,6,10)      =         0.000000           0.000000
	 D(8,7,6,16)      =         3.141593         180.000000
	 D(8,7,6,22)      =        -1.175611         -67.357573
	 D(8,7,22,9)      =         0.646933          37.066544
	 D(8,7,22,10)     =         1.347882          77.227946
	 D(8,7,22,21)     =        -2.144185        -122.852755
	 D(8,9,10,20)     =         3.141593         180.000000
	 D(8,9,10,22)     =         1.175611          67.357573
	 D(8,9,22,10)     =        -1.994815        -114.294489
	 D(8,9,22,21)     =         2.144185         122.852755
	 D(8,22,6,10)     =        -1.347882         -77.227946
	 D(8,22,6,16)     =         2.791118         159.919299
	 D(8,22,7,17)     =         2.144185         122.852755
	 D(8,22,9,10)     =         1.994815         114.294489
	 D(8,22,9,19)     =        -2.144185        -122.852755
	 D(8,22,10,9)     =        -0.646933         -37.066544
	 D(8,22,10,20)    =        -2.791118        -159.919299
	 D(9,8,7,17)      =         3.141593         180.000000
	 D(9,8,7,22)      =        -1.175611         -67.357573
	 D(9,8,22,10)     =         0.646933          37.066544
	 D(9,8,22,21)     =        -2.144185        -122.852755
	 D(9,10,6,16)     =         3.141593         180.000000
	 D(9,10,6,22)     =         1.175611          67.357573
	 D(9,10,22,21)    =         2.144185         122.852755
	 D(9,22,6,10)     =        -0.646933         -37.066544
	 D(9,22,6,16)     =        -2.791118        -159.919299
	 D(9,22,7,17)     =         2.791118         159.919299
	 D(9,22,8,18)     =         2.144185         122.852755
	 D(9,22,10,20)    =        -2.144185        -122.852755
	 D(10,6,7,17)     =         3.141593         180.000000
	 D(10,6,7,22)     =         1.175611          67.357573
	 D(10,6,22,21)    =         2.144185         122.852755
	 D(10,9,8,18)     =         3.141593         180.000000
	 D(10,9,8,22)     =        -1.175611         -67.357573
	 D(10,9,22,21)    =        -2.144185        -122.852755
	 D(10,22,6,16)    =        -2.144185        -122.852755
	 D(10,22,7,17)    =        -2.791118        -159.919299
	 D(10,22,8,18)    =         2.791118         159.919299
	 D(10,22,9,19)    =         2.144185         122.852755
	 D(11,1,2,12)     =         0.000000           0.000000
	 D(11,1,2,21)     =         1.965981         112.642427
	 D(11,1,5,15)     =         0.000000           0.000000
	 D(11,1,5,21)     =        -1.965981        -112.642427
	 D(11,1,21,22)    =         0.000000           0.000000
	 D(12,2,1,21)     =        -1.965981        -112.642427
	 D(12,2,3,13)     =         0.000000           0.000000
	 D(12,2,3,21)     =         1.965981         112.642427
	 D(12,2,21,22)    =        -0.000000          -0.000000
	 D(13,3,2,21)     =        -1.965981        -112.642427
	 D(13,3,4,14)     =         0.000000           0.000000
	 D(13,3,4,21)     =         1.965981         112.642427
	 D(13,3,21,22)    =         0.000000           0.000000
	 D(14,4,3,21)     =        -1.965981        -112.642427
	 D(14,4,5,15)     =         0.000000           0.000000
	 D(14,4,5,21)     =         1.965981         112.642427
	 D(14,4,21,22)    =         0.000000           0.000000
	 D(15,5,1,21)     =         1.965981         112.642427
	 D(15,5,4,21)     =        -1.965981        -112.642427
	 D(15,5,21,22)    =         0.000000           0.000000
	 D(16,6,7,17)     =         0.000000           0.000000
	 D(16,6,7,22)     =        -1.965981        -112.642427
	 D(16,6,10,20)    =         0.000000           0.000000
	 D(16,6,10,22)    =         1.965981         112.642427
	 D(16,6,22,21)    =         0.000000           0.000000
	 D(17,7,6,22)     =         1.965981         112.642427
	 D(17,7,8,18)     =         0.000000           0.000000
	 D(17,7,8,22)     =        -1.965981        -112.642427
	 D(17,7,22,21)    =         0.000000           0.000000
	 D(18,8,7,22)     =         1.965981         112.642427
	 D(18,8,9,19)     =         0.000000           0.000000
	 D(18,8,9,22)     =        -1.965981        -112.642427
	 D(18,8,22,21)    =        -0.000000          -0.000000
	 D(19,9,8,22)     =         1.965981         112.642427
	 D(19,9,10,20)    =        -0.000000          -0.000000
	 D(19,9,10,22)    =        -1.965981        -112.642427
	 D(19,9,22,21)    =         0.000000           0.000000
	 D(20,10,6,22)    =        -1.965981        -112.642427
	 D(20,10,9,22)    =         1.965981         112.642427
	 D(20,10,22,21)   =        -0.000000          -0.000000
	*R(1,6)           =        13.228083           7.000000


	        --- Internal Coordinate Step in ANG or DEG, aJ/ANG or AJ/DEG ---
	-------------------------------------------------------------------------------
	           Coordinate      Previous         Force          Change          New 
	           ----------      --------        ------          ------        ------
	               R(1,2)       1.40748        0.14510        0.02070       1.42818
	               R(1,5)       1.40748        0.14510        0.02070       1.42818
	              R(1,11)       1.07749        0.09280        0.01495       1.09244
	              R(1,21)       2.61259       -0.08772       -0.05564       2.55694
	               R(2,3)       1.40748        0.14515        0.02012       1.42760
	              R(2,12)       1.07749        0.09280        0.01495       1.09244
	              R(2,21)       2.61259       -0.06148       -0.04491       2.56767
	               R(3,4)       1.40748        0.14360        0.01951       1.42699
	              R(3,13)       1.07749        0.09280        0.01495       1.09244
	              R(3,21)       2.61259       -0.04310       -0.03831       2.57428
	               R(4,5)       1.40748        0.14515        0.02012       1.42760
	              R(4,14)       1.07749        0.09280        0.01495       1.09244
	              R(4,21)       2.61259       -0.04310       -0.03831       2.57428
	              R(5,15)       1.07749        0.09280        0.01495       1.09244
	              R(5,21)       2.61259       -0.06148       -0.04491       2.56767
	               R(6,7)       1.40748        0.14510        0.02070       1.42818
	              R(6,10)       1.40748        0.14510        0.02070       1.42818
	              R(6,16)       1.07749        0.09280        0.01495       1.09244
	              R(6,22)       2.61259       -0.08772       -0.05564       2.55694
	               R(7,8)       1.40748        0.14515        0.02012       1.42760
	              R(7,17)       1.07749        0.09280        0.01495       1.09244
	              R(7,22)       2.61259       -0.06148       -0.04491       2.56767
	               R(8,9)       1.40748        0.14360        0.01951       1.42699
	              R(8,18)       1.07749        0.09280        0.01495       1.09244
	              R(8,22)       2.61259       -0.04310       -0.03831       2.57428
	              R(9,10)       1.40748        0.14515        0.02012       1.42760
	              R(9,19)       1.07749        0.09280        0.01495       1.09244
	              R(9,22)       2.61259       -0.04310       -0.03831       2.57428
	             R(10,20)       1.07749        0.09280        0.01495       1.09244
	             R(10,22)       2.61259       -0.06148       -0.04491       2.56767
	             R(21,22)       2.35580        0.33641        0.15162       2.50742
	             B(1,2,3)     108.00000       -0.00001        0.01178     108.01178
	            B(1,2,12)     126.00000        0.00001       -0.00748     125.99252
	            B(1,2,21)      74.37351       -0.00027       -0.96846      73.40504
	             B(1,5,4)     108.00000       -0.00001        0.01178     108.01178
	            B(1,5,15)     126.00000        0.00001       -0.00748     125.99252
	            B(1,5,21)      74.37351       -0.00027       -0.96846      73.40504
	            B(1,21,2)      31.25299        0.00036        1.11020      32.36319
	            B(1,21,3)      51.67776        0.00060        1.84581      53.52357
	            B(1,21,4)      51.67776        0.00060        1.84581      53.52357
	            B(1,21,5)      31.25299        0.00036        1.11020      32.36319
	           B(1,21,22)     152.72438       -0.00037       -1.26385     151.46053
	             B(2,1,5)     108.00000        0.00001       -0.05658     107.94342
	            B(2,1,11)     126.00000       -0.00000        0.02699     126.02699
	            B(2,1,21)      74.37351       -0.00009       -0.14174      74.23177
	             B(2,3,4)     108.00000        0.00001        0.01504     108.01504
	            B(2,3,13)     126.00000       -0.00000       -0.00826     125.99174
	            B(2,3,21)      74.37351       -0.00023       -0.74727      73.62624
	            B(2,21,3)      31.25299        0.00034        0.98531      32.23830
	            B(2,21,4)      51.67776        0.00058        1.70362      53.38138
	            B(2,21,5)      51.67776        0.00060        1.78730      53.46506
	           B(2,21,22)     152.72438       -0.00033       -1.00272     151.72166
	            B(3,2,12)     126.00000        0.00000       -0.00495     125.99505
	            B(3,2,21)      74.37351       -0.00011       -0.23805      74.13546
	             B(3,4,5)     108.00000        0.00001        0.01504     108.01504
	            B(3,4,14)     126.00000       -0.00000       -0.00686     125.99314
	            B(3,4,21)      74.37351       -0.00016       -0.46452      73.90899
	            B(3,21,4)      31.25299        0.00032        0.92903      32.18202
	            B(3,21,5)      51.67776        0.00058        1.70362      53.38138
	           B(3,21,22)     152.72438       -0.00028       -0.73238     151.99200
	            B(4,3,13)     126.00000       -0.00000       -0.00686     125.99314
	            B(4,3,21)      74.37351       -0.00016       -0.46452      73.90899
	            B(4,5,15)     126.00000        0.00000       -0.00495     125.99505
	            B(4,5,21)      74.37351       -0.00011       -0.23805      74.13546
	            B(4,21,5)      31.25299        0.00034        0.98531      32.23830
	           B(4,21,22)     152.72438       -0.00028       -0.73238     151.99200
	            B(5,1,11)     126.00000       -0.00000        0.02699     126.02699
	            B(5,1,21)      74.37351       -0.00009       -0.14174      74.23177
	            B(5,4,14)     126.00000       -0.00000       -0.00826     125.99174
	            B(5,4,21)      74.37351       -0.00023       -0.74727      73.62624
	           B(5,21,22)     152.72438       -0.00033       -1.00272     151.72166
	             B(6,7,8)     108.00000       -0.00001        0.01178     108.01178
	            B(6,7,17)     126.00000        0.00001       -0.00748     125.99252
	            B(6,7,22)      74.37351       -0.00027       -0.96846      73.40504
	            B(6,10,9)     108.00000       -0.00001        0.01178     108.01178
	           B(6,10,20)     126.00000        0.00001       -0.00748     125.99252
	           B(6,10,22)      74.37351       -0.00027       -0.96846      73.40504
	            B(6,22,7)      31.25299        0.00036        1.11020      32.36319
	            B(6,22,8)      51.67776        0.00060        1.84581      53.52357
	            B(6,22,9)      51.67776        0.00060        1.84581      53.52357
	           B(6,22,10)      31.25299        0.00036        1.11020      32.36319
	           B(6,22,21)     152.72438       -0.00037       -1.26385     151.46053
	            B(7,6,10)     108.00000        0.00001       -0.05658     107.94342
	            B(7,6,16)     126.00000       -0.00000        0.02699     126.02699
	            B(7,6,22)      74.37351       -0.00009       -0.14174      74.23177
	             B(7,8,9)     108.00000        0.00001        0.01504     108.01504
	            B(7,8,18)     126.00000       -0.00000       -0.00826     125.99174
	            B(7,8,22)      74.37351       -0.00023       -0.74727      73.62624
	            B(7,22,8)      31.25299        0.00034        0.98531      32.23830
	            B(7,22,9)      51.67776        0.00058        1.70362      53.38139
	           B(7,22,10)      51.67776        0.00060        1.78730      53.46506
	           B(7,22,21)     152.72438       -0.00033       -1.00272     151.72166
	            B(8,7,17)     126.00000        0.00000       -0.00495     125.99505
	            B(8,7,22)      74.37351       -0.00011       -0.23805      74.13546
	            B(8,9,10)     108.00000        0.00001        0.01504     108.01504
	            B(8,9,19)     126.00000       -0.00000       -0.00686     125.99314
	            B(8,9,22)      74.37351       -0.00016       -0.46452      73.90899
	            B(8,22,9)      31.25299        0.00032        0.92903      32.18202
	           B(8,22,10)      51.67776        0.00058        1.70362      53.38139
	           B(8,22,21)     152.72438       -0.00028       -0.73238     151.99200
	            B(9,8,18)     126.00000       -0.00000       -0.00686     125.99314
	            B(9,8,22)      74.37351       -0.00016       -0.46452      73.90899
	           B(9,10,20)     126.00000        0.00000       -0.00495     125.99505
	           B(9,10,22)      74.37351       -0.00011       -0.23805      74.13546
	           B(9,22,10)      31.25299        0.00034        0.98531      32.23830
	           B(9,22,21)     152.72438       -0.00028       -0.73238     151.99200
	           B(10,6,16)     126.00000       -0.00000        0.02699     126.02699
	           B(10,6,22)      74.37351       -0.00009       -0.14174      74.23177
	           B(10,9,19)     126.00000       -0.00000       -0.00826     125.99174
	           B(10,9,22)      74.37351       -0.00023       -0.74727      73.62624
	          B(10,22,21)     152.72438       -0.00033       -1.00272     151.72166
	           B(11,1,21)     117.27562        0.00016        0.69292     117.96854
	           B(12,2,21)     117.27562        0.00022        0.89359     118.16920
	           B(13,3,21)     117.27562        0.00027        1.04589     118.32150
	           B(14,4,21)     117.27562        0.00027        1.04589     118.32150
	           B(15,5,21)     117.27562        0.00022        0.89359     118.16920
	           B(16,6,22)     117.27562        0.00016        0.69292     117.96854
	           B(17,7,22)     117.27562        0.00022        0.89359     118.16920
	           B(18,8,22)     117.27562        0.00027        1.04589     118.32150
	           B(19,9,22)     117.27562        0.00027        1.04589     118.32150
	          B(20,10,22)     117.27562        0.00022        0.89359     118.16920
	           D(1,2,3,4)       0.00000        0.00006        0.33115       0.33115
	          D(1,2,3,13)     180.00000        0.00017        0.43070     180.43070
	          D(1,2,3,21)     -67.35757        0.00035        1.22470     -66.13287
	          D(1,2,21,3)     114.29449        0.00015        0.54774     114.84223
	          D(1,2,21,4)      77.22795        0.00015        0.59041      77.81836
	          D(1,2,21,5)      37.06654        0.00006        0.30011      37.36665
	         D(1,2,21,22)    -122.85276        0.00016        0.78930    -122.06346
	           D(1,5,4,3)       0.00000       -0.00006       -0.33115      -0.33115
	          D(1,5,4,14)     180.00000       -0.00017       -0.43070     179.56930
	          D(1,5,4,21)      67.35757       -0.00035       -1.22470      66.13287
	          D(1,5,21,2)     -37.06654       -0.00006       -0.30011     -37.36665
	          D(1,5,21,3)     -77.22795       -0.00015       -0.59041     -77.81836
	          D(1,5,21,4)    -114.29449       -0.00015       -0.54774    -114.84223
	         D(1,5,21,22)     122.85276       -0.00016       -0.78930     122.06346
	          D(1,21,2,3)    -114.29449       -0.00015       -0.54774    -114.84223
	         D(1,21,2,12)     122.85276       -0.00011       -0.43947     122.41329
	          D(1,21,3,2)      37.06654        0.00004        0.09717      37.16372
	          D(1,21,3,4)     -77.22795       -0.00014       -0.45804     -77.68598
	         D(1,21,3,13)     159.91930       -0.00007       -0.24535     159.67395
	          D(1,21,4,3)      77.22795        0.00014        0.45804      77.68598
	          D(1,21,4,5)     -37.06654       -0.00004       -0.09717     -37.16372
	         D(1,21,4,14)    -159.91930        0.00007        0.24535    -159.67395
	          D(1,21,5,4)     114.29449        0.00015        0.54774     114.84223
	         D(1,21,5,15)    -122.85276        0.00011        0.43947    -122.41329
	         D(1,21,22,6)       0.00000        0.00000        0.00000       0.00000
	         D(1,21,22,7)     -72.00000        0.00005        0.28815     -71.71185
	         D(1,21,22,8)    -144.00000        0.00003        0.17256    -143.82744
	         D(1,21,22,9)     144.00000       -0.00003       -0.17256     143.82744
	        D(1,21,22,10)      72.00000       -0.00005       -0.28815      71.71185
	           D(2,1,5,4)       0.00000        0.00009        0.53540       0.53540
	          D(2,1,5,15)     180.00000       -0.00006        0.25582     180.25582
	          D(2,1,5,21)      67.35757       -0.00015       -0.20319      67.15438
	          D(2,1,21,3)     -37.06654       -0.00001        0.05217     -37.01437
	          D(2,1,21,4)     -77.22795       -0.00008       -0.11189     -77.33983
	          D(2,1,21,5)    -114.29449       -0.00009       -0.05972    -114.35420
	         D(2,1,21,22)     122.85276       -0.00005       -0.02986     122.82290
	           D(2,3,4,5)       0.00000        0.00000        0.00000       0.00000
	          D(2,3,4,14)     180.00000        0.00012        0.09956     180.09956
	          D(2,3,4,21)     -67.35757        0.00034        1.08171     -66.27587
	          D(2,3,21,4)     114.29449        0.00018        0.55521     114.84970
	          D(2,3,21,5)      77.22795        0.00016        0.53042      77.75837
	         D(2,3,21,22)    -122.85276        0.00014        0.54563    -122.30713
	          D(2,21,1,5)     114.29449        0.00009        0.05972     114.35420
	         D(2,21,1,11)    -122.85276        0.00005        0.02986    -122.82290
	          D(2,21,3,4)    -114.29449       -0.00018       -0.55521    -114.84970
	         D(2,21,3,13)     122.85276       -0.00010       -0.34252     122.51024
	          D(2,21,4,3)      37.06654        0.00001        0.02479      37.09133
	          D(2,21,4,5)     -77.22795       -0.00016       -0.53042     -77.75837
	         D(2,21,4,14)     159.91930       -0.00006       -0.18790     159.73139
	          D(2,21,5,4)      77.22795        0.00009        0.24763      77.47558
	         D(2,21,5,15)    -159.91930        0.00005        0.13936    -159.77994
	         D(2,21,22,6)      72.00000       -0.00005       -0.28815      71.71185
	         D(2,21,22,7)      -0.00000       -0.00000        0.00000      -0.00000
	         D(2,21,22,8)     -72.00000       -0.00002       -0.11559     -72.11559
	         D(2,21,22,9)    -144.00000       -0.00008       -0.46072    -144.46072
	        D(2,21,22,10)     144.00000       -0.00010       -0.57631     143.42369
	           D(3,2,1,5)       0.00000       -0.00009       -0.53540      -0.53540
	          D(3,2,1,11)     180.00000       -0.00010        0.02313     180.02313
	          D(3,2,1,21)      67.35757       -0.00024       -0.73859      66.61898
	          D(3,2,21,4)     -37.06654        0.00000        0.04268     -37.02387
	          D(3,2,21,5)     -77.22795       -0.00009       -0.24763     -77.47558
	         D(3,2,21,22)     122.85276        0.00001        0.24156     123.09432
	          D(3,4,5,15)     180.00000        0.00009       -0.05155     179.94845
	          D(3,4,5,21)     -67.35757        0.00029        0.89355     -66.46402
	          D(3,4,21,5)     114.29449        0.00018        0.55521     114.84970
	         D(3,4,21,22)    -122.85276        0.00004        0.00958    -122.84317
	          D(3,21,1,5)      77.22795        0.00008        0.11189      77.33983
	         D(3,21,1,11)    -159.91930        0.00004        0.08203    -159.83727
	         D(3,21,2,12)    -122.85276        0.00004        0.10827    -122.74449
	          D(3,21,4,5)    -114.29449       -0.00018       -0.55521    -114.84970
	         D(3,21,4,14)     122.85276       -0.00007       -0.21269     122.64006
	          D(3,21,5,4)      37.06654       -0.00000       -0.04268      37.02387
	         D(3,21,5,15)     159.91930       -0.00005       -0.15095     159.76835
	         D(3,21,22,6)     144.00000       -0.00003       -0.17256     143.82744
	         D(3,21,22,7)      72.00000        0.00002        0.11559      72.11559
	         D(3,21,22,8)       0.00000       -0.00000       -0.00000      -0.00000
	         D(3,21,22,9)     -72.00000       -0.00006       -0.34513     -72.34513
	        D(3,21,22,10)    -144.00000       -0.00008       -0.46072    -144.46072
	          D(4,3,2,12)     180.00000       -0.00009        0.05155     180.05155
	          D(4,3,2,21)      67.35757       -0.00029       -0.89355      66.46402
	          D(4,3,21,5)     -37.06654       -0.00001       -0.02479     -37.09133
	         D(4,3,21,22)     122.85276       -0.00004       -0.00958     122.84317
	          D(4,5,1,11)     180.00000        0.00010       -0.02313     179.97687
	          D(4,5,1,21)     -67.35757        0.00024        0.73859     -66.61898
	         D(4,5,21,22)    -122.85276       -0.00001       -0.24156    -123.09432
	          D(4,21,1,5)      37.06654        0.00001       -0.05217      37.01437
	         D(4,21,1,11)     159.91930       -0.00004       -0.08203     159.83727
	         D(4,21,2,12)    -159.91930        0.00005        0.15095    -159.76835
	         D(4,21,3,13)    -122.85276        0.00007        0.21269    -122.64006
	         D(4,21,5,15)     122.85276       -0.00004       -0.10827     122.74449
	         D(4,21,22,6)    -144.00000        0.00003        0.17256    -143.82744
	         D(4,21,22,7)     144.00000        0.00008        0.46072     144.46072
	         D(4,21,22,8)      72.00000        0.00006        0.34513      72.34513
	         D(4,21,22,9)      -0.00000       -0.00000        0.00000      -0.00000
	        D(4,21,22,10)     -72.00000       -0.00002       -0.11559     -72.11559
	          D(5,1,2,12)     180.00000        0.00006       -0.25582     179.74418
	          D(5,1,2,21)     -67.35757        0.00015        0.20319     -67.15438
	         D(5,1,21,22)    -122.85276        0.00005        0.02986    -122.82290
	          D(5,4,3,13)     180.00000       -0.00012       -0.09956     179.90044
	          D(5,4,3,21)      67.35757       -0.00034       -1.08171      66.27587
	         D(5,4,21,22)     122.85276       -0.00014       -0.54563     122.30713
	         D(5,21,1,11)     122.85276       -0.00005       -0.02986     122.82290
	         D(5,21,2,12)     159.91930       -0.00005       -0.13936     159.77994
	         D(5,21,3,13)    -159.91930        0.00006        0.18790    -159.73139
	         D(5,21,4,14)    -122.85276        0.00010        0.34252    -122.51024
	         D(5,21,22,6)     -72.00000        0.00005        0.28815     -71.71185
	         D(5,21,22,7)    -144.00000        0.00010        0.57631    -143.42369
	         D(5,21,22,8)     144.00000        0.00008        0.46072     144.46072
	         D(5,21,22,9)      72.00000        0.00002        0.11559      72.11559
	        D(5,21,22,10)      -0.00000        0.00000        0.00000       0.00000
	           D(6,7,8,9)       0.00000       -0.00006       -0.33115      -0.33115
	          D(6,7,8,18)     180.00000       -0.00017       -0.43070     179.56930
	          D(6,7,8,22)      67.35757       -0.00035       -1.22470      66.13287
	          D(6,7,22,8)    -114.29449       -0.00015       -0.54774    -114.84223
	          D(6,7,22,9)     -77.22795       -0.00015       -0.59041     -77.81836
	         D(6,7,22,10)     -37.06654       -0.00006       -0.30011     -37.36665
	         D(6,7,22,21)     122.85276       -0.00016       -0.78930     122.06346
	          D(6,10,9,8)       0.00000        0.00006        0.33115       0.33115
	         D(6,10,9,19)     180.00000        0.00017        0.43070     180.43070
	         D(6,10,9,22)     -67.35757        0.00035        1.22470     -66.13287
	         D(6,10,22,7)      37.06654        0.00006        0.30011      37.36665
	         D(6,10,22,8)      77.22795        0.00015        0.59041      77.81836
	         D(6,10,22,9)     114.29449        0.00015        0.54774     114.84223
	        D(6,10,22,21)    -122.85276        0.00016        0.78930    -122.06346
	          D(6,22,7,8)     114.29449        0.00015        0.54774     114.84223
	         D(6,22,7,17)    -122.85276        0.00011        0.43947    -122.41329
	          D(6,22,8,7)     -37.06654       -0.00004       -0.09717     -37.16372
	          D(6,22,8,9)      77.22795        0.00014        0.45804      77.68598
	         D(6,22,8,18)    -159.91930        0.00007        0.24535    -159.67395
	          D(6,22,9,8)     -77.22795       -0.00014       -0.45804     -77.68598
	         D(6,22,9,10)      37.06654        0.00004        0.09717      37.16372
	         D(6,22,9,19)     159.91930       -0.00007       -0.24535     159.67395
	         D(6,22,10,9)    -114.29449       -0.00015       -0.54774    -114.84223
	        D(6,22,10,20)     122.85276       -0.00011       -0.43947     122.41329
	          D(7,6,10,9)       0.00000       -0.00009       -0.53540      -0.53540
	         D(7,6,10,20)     180.00000        0.00006       -0.25582     179.74418
	         D(7,6,10,22)     -67.35757        0.00015        0.20319     -67.15438
	          D(7,6,22,8)      37.06654        0.00001       -0.05217      37.01437
	          D(7,6,22,9)      77.22795        0.00008        0.11189      77.33983
	         D(7,6,22,10)     114.29449        0.00009        0.05972     114.35420
	         D(7,6,22,21)    -122.85276        0.00005        0.02986    -122.82290
	          D(7,8,9,10)       0.00000       -0.00000       -0.00000      -0.00000
	          D(7,8,9,19)     180.00000       -0.00012       -0.09956     179.90044
	          D(7,8,9,22)      67.35757       -0.00034       -1.08171      66.27587
	          D(7,8,22,9)    -114.29449       -0.00018       -0.55521    -114.84970
	         D(7,8,22,10)     -77.22795       -0.00016       -0.53042     -77.75837
	         D(7,8,22,21)     122.85276       -0.00014       -0.54563     122.30713
	         D(7,22,6,10)    -114.29449       -0.00009       -0.05972    -114.35420
	         D(7,22,6,16)     122.85276       -0.00005       -0.02986     122.82290
	          D(7,22,8,9)     114.29449        0.00018        0.55521     114.84970
	         D(7,22,8,18)    -122.85276        0.00010        0.34252    -122.51024
	          D(7,22,9,8)     -37.06654       -0.00001       -0.02479     -37.09133
	         D(7,22,9,10)      77.22795        0.00016        0.53042      77.75837
	         D(7,22,9,19)    -159.91930        0.00006        0.18790    -159.73139
	         D(7,22,10,9)     -77.22795       -0.00009       -0.24763     -77.47558
	        D(7,22,10,20)     159.91930       -0.00005       -0.13936     159.77994
	          D(8,7,6,10)       0.00000        0.00009        0.53540       0.53540
	          D(8,7,6,16)     180.00000        0.00010       -0.02313     179.97687
	          D(8,7,6,22)     -67.35757        0.00024        0.73859     -66.61898
	          D(8,7,22,9)      37.06654       -0.00000       -0.04268      37.02387
	         D(8,7,22,10)      77.22795        0.00009        0.24763      77.47558
	         D(8,7,22,21)    -122.85276       -0.00001       -0.24156    -123.09432
	         D(8,9,10,20)     180.00000       -0.00009        0.05155     180.05155
	         D(8,9,10,22)      67.35757       -0.00029       -0.89355      66.46402
	         D(8,9,22,10)    -114.29449       -0.00018       -0.55521    -114.84970
	         D(8,9,22,21)     122.85276       -0.00004       -0.00958     122.84317
	         D(8,22,6,10)     -77.22795       -0.00008       -0.11189     -77.33983
	         D(8,22,6,16)     159.91930       -0.00004       -0.08203     159.83727
	         D(8,22,7,17)     122.85276       -0.00004       -0.10827     122.74449
	         D(8,22,9,10)     114.29449        0.00018        0.55521     114.84970
	         D(8,22,9,19)    -122.85276        0.00007        0.21269    -122.64006
	         D(8,22,10,9)     -37.06654        0.00000        0.04268     -37.02387
	        D(8,22,10,20)    -159.91930        0.00005        0.15095    -159.76835
	          D(9,8,7,17)     180.00000        0.00009       -0.05155     179.94845
	          D(9,8,7,22)     -67.35757        0.00029        0.89355     -66.46402
	         D(9,8,22,10)      37.06654        0.00001        0.02479      37.09133
	         D(9,8,22,21)    -122.85276        0.00004        0.00958    -122.84317
	         D(9,10,6,16)     180.00000       -0.00010        0.02313     180.02313
	         D(9,10,6,22)      67.35757       -0.00024       -0.73859      66.61898
	        D(9,10,22,21)     122.85276        0.00001        0.24156     123.09432
	         D(9,22,6,10)     -37.06654       -0.00001        0.05217     -37.01437
	         D(9,22,6,16)    -159.91930        0.00004        0.08203    -159.83727
	         D(9,22,7,17)     159.91930       -0.00005       -0.15095     159.76835
	         D(9,22,8,18)     122.85276       -0.00007       -0.21269     122.64006
	        D(9,22,10,20)    -122.85276        0.00004        0.10827    -122.74449
	         D(10,6,7,17)     180.00000       -0.00006        0.25582     180.25582
	         D(10,6,7,22)      67.35757       -0.00015       -0.20319      67.15438
	        D(10,6,22,21)     122.85276       -0.00005       -0.02986     122.82290
	         D(10,9,8,18)     180.00000        0.00012        0.09956     180.09956
	         D(10,9,8,22)     -67.35757        0.00034        1.08171     -66.27587
	        D(10,9,22,21)    -122.85276        0.00014        0.54563    -122.30713
	        D(10,22,6,16)    -122.85276        0.00005        0.02986    -122.82290
	        D(10,22,7,17)    -159.91930        0.00005        0.13936    -159.77994
	        D(10,22,8,18)     159.91930       -0.00006       -0.18790     159.73139
	        D(10,22,9,19)     122.85276       -0.00010       -0.34252     122.51024
	         D(11,1,2,12)       0.00000        0.00005        0.30272       0.30272
	         D(11,1,2,21)     112.64243        0.00014        0.76173     113.40415
	         D(11,1,5,15)       0.00000       -0.00005       -0.30272      -0.30272
	         D(11,1,5,21)    -112.64243       -0.00014       -0.76173    -113.40415
	        D(11,1,21,22)       0.00000       -0.00000       -0.00000      -0.00000
	         D(12,2,1,21)    -112.64243       -0.00009       -0.45901    -113.10143
	         D(12,2,3,13)       0.00000        0.00002        0.15111       0.15111
	         D(12,2,3,21)     112.64243        0.00020        0.94511     113.58753
	        D(12,2,21,22)      -0.00000        0.00006        0.34983       0.34983
	         D(13,3,2,21)    -112.64243       -0.00018       -0.79400    -113.43642
	         D(13,3,4,14)       0.00000        0.00000        0.00000       0.00000
	         D(13,3,4,21)     112.64243        0.00022        0.98215     113.62458
	        D(13,3,21,22)       0.00000        0.00004        0.20311       0.20311
	         D(14,4,3,21)    -112.64243       -0.00022       -0.98215    -113.62458
	         D(14,4,5,15)       0.00000       -0.00002       -0.15111      -0.15111
	         D(14,4,5,21)     112.64243        0.00018        0.79400     113.43642
	        D(14,4,21,22)       0.00000       -0.00004       -0.20311      -0.20311
	         D(15,5,1,21)     112.64243        0.00009        0.45901     113.10143
	         D(15,5,4,21)    -112.64243       -0.00020       -0.94511    -113.58753
	        D(15,5,21,22)       0.00000       -0.00006       -0.34983      -0.34983
	         D(16,6,7,17)       0.00000       -0.00005       -0.30272      -0.30272
	         D(16,6,7,22)    -112.64243       -0.00014       -0.76173    -113.40415
	        D(16,6,10,20)       0.00000        0.00005        0.30272       0.30272
	        D(16,6,10,22)     112.64243        0.00014        0.76173     113.40415
	        D(16,6,22,21)       0.00000       -0.00000       -0.00000      -0.00000
	         D(17,7,6,22)     112.64243        0.00009        0.45901     113.10143
	         D(17,7,8,18)       0.00000       -0.00002       -0.15111      -0.15111
	         D(17,7,8,22)    -112.64243       -0.00020       -0.94511    -113.58753
	        D(17,7,22,21)       0.00000       -0.00006       -0.34983      -0.34983
	         D(18,8,7,22)     112.64243        0.00018        0.79400     113.43642
	         D(18,8,9,19)       0.00000        0.00000        0.00000       0.00000
	         D(18,8,9,22)    -112.64243       -0.00022       -0.98215    -113.62458
	        D(18,8,22,21)      -0.00000       -0.00004       -0.20311      -0.20311
	         D(19,9,8,22)     112.64243        0.00022        0.98215     113.62458
	        D(19,9,10,20)      -0.00000        0.00002        0.15111       0.15111
	        D(19,9,10,22)    -112.64243       -0.00018       -0.79400    -113.43642
	        D(19,9,22,21)       0.00000        0.00004        0.20311       0.20311
	        D(20,10,6,22)    -112.64243       -0.00009       -0.45901    -113.10143
[...]
	          D(3,2,1,11)     183.60967       -0.00053       -0.67943     182.93024
	          D(3,2,1,21)      65.32703       -0.00084       -0.98411      64.34292
	          D(3,2,21,4)     -37.33058       -0.00010       -0.13256     -37.46314
	          D(3,2,21,5)     -78.01406       -0.00049       -0.63048     -78.64454
	         D(3,2,21,22)     114.87548       -0.00040       -0.62067     114.25481
	          D(3,4,5,15)     176.32920        0.00056        0.74945     177.07865
	          D(3,4,5,21)     -66.17727        0.00081        1.08042     -65.09685
	          D(3,4,21,5)     114.96601        0.00042        0.54589     115.51190
	         D(3,4,21,22)    -118.33346        0.00033        0.47946    -117.85400
	          D(3,21,1,5)      78.33708        0.00045        0.54061      78.87769
	         D(3,21,1,11)    -159.51686        0.00018        0.21431    -159.30255
	         D(3,21,2,12)    -122.34159        0.00029        0.40423    -121.93735
	          D(3,21,4,5)    -114.96601       -0.00042       -0.54589    -115.51190
	         D(3,21,4,14)     122.46311       -0.00026       -0.35816     122.10495
	          D(3,21,5,4)      37.34317        0.00010        0.12675      37.46992
	         D(3,21,5,15)     159.72926       -0.00020       -0.28567     159.44358
	         D(3,21,22,6)     147.05417       -0.00035       -0.44042     146.61375
	         D(3,21,22,7)      84.07013        0.00020        0.26025      84.33038
	         D(3,21,22,8)      12.35310       -0.00026       -0.39551      11.95759
	         D(3,21,22,9)     -76.69887        0.00014        0.41203     -76.28683
	        D(3,21,22,10)    -151.97692        0.00034        0.57100    -151.40593
	          D(4,3,2,12)     183.65336       -0.00056       -0.75051     182.90285
	          D(4,3,2,21)      66.16144       -0.00082       -1.05794      65.10350
	          D(4,3,21,5)     -37.16865       -0.00011       -0.14114     -37.30979
	         D(4,3,21,22)     118.61886       -0.00028       -0.44213     118.17673
	          D(4,5,1,11)     176.39926        0.00053        0.67533     177.07459
	          D(4,5,1,21)     -65.37231        0.00085        1.01383     -64.35848
	         D(4,5,21,22)    -114.94224        0.00037        0.61094    -114.33129
	          D(4,21,1,5)      37.35210        0.00009        0.07864      37.43074
	         D(4,21,1,11)     159.49815       -0.00018       -0.24766     159.25049
	         D(4,21,2,12)    -159.67217        0.00019        0.27168    -159.40049
	         D(4,21,3,13)    -122.36594        0.00024        0.31176    -122.05417
	         D(4,21,5,15)     122.38609       -0.00030       -0.41243     121.97367
	         D(4,21,22,6)    -147.76389       -0.00039       -0.58913    -148.35302
	         D(4,21,22,7)     149.25208        0.00016        0.11154     149.36362
	         D(4,21,22,8)      77.53504       -0.00029       -0.54422      76.99082
	         D(4,21,22,9)     -11.51693        0.00010        0.26333     -11.25360
	        D(4,21,22,10)     -86.79498        0.00030        0.42229     -86.37269
	          D(5,1,2,12)     176.32423        0.00061        0.84049     177.16472
	          D(5,1,2,21)     -65.39142        0.00097        1.21834     -64.17307
	         D(5,1,21,22)    -122.52665        0.00028        0.36648    -122.16017
	          D(5,4,3,13)     183.48158       -0.00055       -0.75707     182.72451
	          D(5,4,3,21)      66.77608       -0.00080       -1.11851      65.65757
	         D(5,4,21,22)     126.70053       -0.00009       -0.06643     126.63410
	         D(5,21,1,11)     122.14606       -0.00027       -0.32630     121.81976
	         D(5,21,2,12)     159.64435       -0.00019       -0.22624     159.41811
	         D(5,21,3,13)    -159.53458        0.00013        0.17062    -159.36396
	         D(5,21,4,14)    -122.57088        0.00016        0.18774    -122.38315
	         D(5,21,22,6)     -78.73064       -0.00035       -0.60978     -79.34042
	         D(5,21,22,7)    -141.71467        0.00020        0.09089    -141.62378
	         D(5,21,22,8)     146.56829       -0.00025       -0.56487     146.00342
	         D(5,21,22,9)      57.51632        0.00014        0.24268      57.75900
	        D(5,21,22,10)     -17.76173        0.00035        0.40164     -17.36010
	           D(6,7,8,9)      -0.14870        0.00012        0.23379       0.08509
	          D(6,7,8,18)     184.06528       -0.00053       -0.63611     183.42917
	          D(6,7,8,22)      65.94707       -0.00079       -0.97023      64.97683
	          D(6,7,22,8)    -114.69809       -0.00062       -0.84283    -115.54091
	          D(6,7,22,9)     -76.73612       -0.00063       -0.91788     -77.65400
	         D(6,7,22,10)     -35.59516       -0.00040       -0.58849     -36.18364
	         D(6,7,22,21)     112.71393       -0.00056       -0.70310     112.01083
	          D(6,10,9,8)       0.19170       -0.00005       -0.14381       0.04788
	         D(6,10,9,19)     176.09328        0.00056        0.66809     176.76137
	         D(6,10,9,22)     -66.65988        0.00094        1.04774     -65.61214
	         D(6,10,22,7)      36.86813       -0.00024       -0.26799      36.60014
	         D(6,10,22,8)      76.81084        0.00048        0.70021      77.51104
	         D(6,10,22,9)     114.69108        0.00053        0.73290     115.42398
	        D(6,10,22,21)    -111.05916        0.00008        0.07625    -110.98291
	          D(6,22,7,8)     114.69809        0.00062        0.84283     115.54091
	         D(6,22,7,17)    -123.55427        0.00042        0.60101    -122.95326
	          D(6,22,8,7)     -37.68814        0.00027        0.40617     -37.28197
	          D(6,22,8,9)      77.06220        0.00074        1.01890      78.08110
	         D(6,22,8,18)    -160.55747        0.00040        0.52481    -160.03266
	          D(6,22,9,8)     -77.72799       -0.00031       -0.38078     -78.10877
	         D(6,22,9,10)      36.48973        0.00034        0.41155      36.90128
	         D(6,22,9,19)     159.51214        0.00005        0.08619     159.59833
	         D(6,22,10,9)    -114.69108       -0.00053       -0.73290    -115.42398
	        D(6,22,10,20)     123.00291       -0.00016       -0.20993     122.79298
	          D(7,6,10,9)      -0.28550        0.00013        0.29029       0.00479
	         D(7,6,10,20)     176.34258        0.00070        0.96687     177.30945
	         D(7,6,10,22)     -65.05179        0.00107        1.28763     -63.76416
	          D(7,6,22,8)      36.88487        0.00034        0.42070      37.30558
	          D(7,6,22,9)      78.54846        0.00065        0.73368      79.28214
	         D(7,6,22,10)     116.55671        0.00052        0.54712     117.10382
	         D(7,6,22,21)    -121.76288        0.00062        0.78036    -120.98253
	          D(7,8,9,10)      -0.02304       -0.00005       -0.05983      -0.08287
	          D(7,8,9,19)     184.09624       -0.00067       -0.88299     183.21325
	          D(7,8,9,22)      67.76076       -0.00098       -1.34840      66.41236
	          D(7,8,22,9)    -114.75034       -0.00047       -0.61274    -115.36307
	         D(7,8,22,10)     -77.15269       -0.00048       -0.59742     -77.75011
	         D(7,8,22,21)     112.62568       -0.00004        0.08375     112.70943
	         D(7,22,6,10)    -116.55671       -0.00052       -0.54712    -117.10382
	         D(7,22,6,16)     122.51441       -0.00042       -0.52947     121.98494
	          D(7,22,8,9)     114.75034        0.00047        0.61274     115.36307
	         D(7,22,8,18)    -122.86933        0.00013        0.11864    -122.75069
	          D(7,22,9,8)     -36.68131       -0.00032       -0.44068     -37.12199
	         D(7,22,9,10)      77.53641        0.00032        0.35164      77.88805
	         D(7,22,9,19)    -159.44118        0.00003        0.02629    -159.41489
	         D(7,22,10,9)     -77.82295       -0.00077       -1.00089     -78.82384
	        D(7,22,10,20)     159.87104       -0.00040       -0.47792     159.39312
	          D(8,7,6,10)       0.27293       -0.00016       -0.32882      -0.05589
	          D(8,7,6,16)     176.83473        0.00063        0.78983     177.62456
	          D(8,7,6,22)     -64.92624        0.00108        1.28260     -63.64363
	          D(8,7,22,9)      37.96197       -0.00001       -0.07506      37.88691
	         D(8,7,22,10)      79.10293        0.00022        0.25434      79.35727
	         D(8,7,22,21)    -132.58798        0.00006        0.13973    -132.44825
	         D(8,9,10,20)     183.59499       -0.00064       -0.83600     182.75899
	         D(8,9,10,22)      66.85158       -0.00099       -1.19155      65.66003
	         D(8,9,22,10)    -114.21772       -0.00064       -0.79232    -115.01005
	         D(8,9,22,21)     131.16012       -0.00040       -0.67110     130.48901
	         D(8,22,6,10)     -79.67183       -0.00019       -0.12642     -79.79825
	         D(8,22,6,16)     159.39928       -0.00009       -0.10877     159.29051
	         D(8,22,7,17)     121.74764       -0.00020       -0.24182     121.50582
	         D(8,22,9,10)     114.21772        0.00064        0.79232     115.01005
	         D(8,22,9,19)    -122.75987        0.00035        0.46697    -122.29290
	         D(8,22,10,9)     -37.88024       -0.00006       -0.03269     -37.91293
	        D(8,22,10,20)    -160.18625        0.00032        0.49028    -159.69597
	          D(9,8,7,17)     176.27077        0.00067        0.88989     177.16066
	          D(9,8,7,22)     -66.09577        0.00092        1.20403     -64.89174
	         D(9,8,22,10)      37.59765       -0.00002        0.01532      37.61297
	         D(9,8,22,21)    -132.62399        0.00043        0.69649    -131.92750
	         D(9,10,6,16)     183.09157       -0.00063       -0.78934     182.30224
	         D(9,10,6,22)      64.76629       -0.00094       -0.99734      63.76894
	        D(9,10,22,21)     134.24976       -0.00045       -0.65665     133.59311
	         D(9,22,6,10)     -38.00825        0.00012        0.18657     -37.82168
	         D(9,22,6,16)    -158.93713        0.00023        0.20421    -158.73292
	         D(9,22,7,17)     159.70961       -0.00022       -0.31687     159.39273
	         D(9,22,8,18)     122.38033       -0.00034       -0.49409     121.88624
	        D(9,22,10,20)    -122.30601        0.00037        0.52297    -121.78304
	         D(10,6,7,17)     183.89065       -0.00073       -1.01290     182.87775
	         D(10,6,7,22)      65.19916       -0.00124       -1.61142      63.58774
	        D(10,6,22,21)     121.68041        0.00010        0.23324     121.91365
	         D(10,9,8,18)     175.72401        0.00062        0.83476     176.55876
	         D(10,9,8,22)     -67.78380        0.00093        1.28857     -66.49523
	        D(10,9,22,21)    -114.62216        0.00025        0.12122    -114.50094
	        D(10,22,6,16)    -120.92888        0.00010        0.01765    -120.91124
	        D(10,22,7,17)    -159.14943        0.00002        0.01252    -159.13690
	        D(10,22,8,18)     159.97799       -0.00035       -0.47878     159.49921
	        D(10,22,9,19)     123.02241       -0.00029       -0.32535     122.69705
	         D(11,1,2,12)      -0.00172       -0.00005       -0.07317      -0.07489
	         D(11,1,2,21)     118.28263        0.00031        0.30468     118.58731
	         D(11,1,5,15)       0.00989        0.00006        0.07997       0.08986
	         D(11,1,5,21)    -118.22843       -0.00032       -0.33850    -118.56693
	        D(11,1,21,22)      -0.38059        0.00001        0.04018      -0.34041
	         D(12,2,1,21)    -118.28436       -0.00036       -0.37785    -118.66220
	         D(12,2,3,13)       0.19421       -0.00002       -0.00785       0.18636
	         D(12,2,3,21)     117.49192        0.00027        0.30743     117.79935
	        D(12,2,21,22)      -7.46610       -0.00010       -0.21643      -7.68254
	         D(13,3,2,21)    -117.29771       -0.00028       -0.31528    -117.61299
	         D(13,3,4,14)      -0.00639       -0.00000       -0.00199      -0.00838
	         D(13,3,4,21)     116.70550        0.00025        0.36144     117.06694
	        D(13,3,21,22)      -3.74708       -0.00005       -0.13037      -3.87745
	         D(14,4,3,21)    -116.71189       -0.00026       -0.36343    -117.07532
	         D(14,4,5,15)      -0.19679        0.00001        0.00299      -0.19380
	         D(14,4,5,21)     117.29675        0.00027        0.33395     117.63070
	        D(14,4,21,22)       4.12965        0.00007        0.12131       4.25095
	         D(15,5,1,21)     118.23832        0.00037        0.41847     118.65679
	         D(15,5,4,21)    -117.49354       -0.00025       -0.33096    -117.82450
	        D(15,5,21,22)       7.44386        0.00007        0.19852       7.64237
	         D(16,6,7,17)       0.45245        0.00006        0.10575       0.55820
	         D(16,6,7,22)    -118.23904       -0.00044       -0.49277    -118.73181
	        D(16,6,10,20)      -0.28034       -0.00006       -0.11276      -0.39310
	        D(16,6,10,22)     118.32529        0.00030        0.20800     118.53329
	        D(16,6,22,21)       0.75153        0.00020        0.25089       1.00241
	         D(17,7,6,22)     118.69149        0.00051        0.59852     119.29001
	         D(17,7,8,18)       0.48475        0.00002        0.01999       0.50474
	         D(17,7,8,22)    -117.63346       -0.00025       -0.31413    -117.94759
	        D(17,7,22,21)     -10.84034       -0.00015       -0.10209     -10.94243
	         D(18,8,7,22)     118.11821        0.00026        0.33412     118.45234
	         D(18,8,9,19)      -0.15671        0.00000        0.01160      -0.14511
	         D(18,8,9,22)    -116.49219       -0.00031       -0.45381    -116.94601
	        D(18,8,22,21)     -10.24365        0.00009        0.20239     -10.04126
	         D(19,9,8,22)     116.33548        0.00031        0.46541     116.80089
	        D(19,9,10,20)      -0.50343       -0.00002       -0.02409      -0.52752
	        D(19,9,10,22)    -117.24684       -0.00038       -0.37964    -117.62649
	        D(19,9,22,21)       8.40025       -0.00004       -0.20413       8.19611
	        D(20,10,6,22)    -118.60563       -0.00036       -0.32076    -118.92640
	        D(20,10,9,22)     116.74342        0.00035        0.35555     117.09897
	       D(20,10,22,21)      11.94375       -0.00008       -0.13368      11.81007
	              *R(1,6)       6.96736        0.00000       -0.00010       6.96726
	-------------------------------------------------------------------------------

	                                 ==> Convergence Check <==                                  
    
	Measures of convergence in internal coordinates in au.
    
	Criteria marked as inactive (o), active & met (*), and active & unmet ( ).

	----------------------------------------------------------------------------------------------
	   Step    Total Energy     Delta E     Max Force     RMS Force      Max Disp      RMS Disp   
	----------------------------------------------------------------------------------------------
	  Convergence Criteria     1.00e-06 *    3.00e-04 *             o    1.20e-03 *             o
	----------------------------------------------------------------------------------------------
	    50    -785.12944564   -6.31e-02      9.55e-02      1.51e-02 o    1.61e-01      2.55e-02 o  ~
	----------------------------------------------------------------------------------------------

Next Geometry in Ang 
	Fragment 1 (Ang)

	    C   3.4856957598   1.0512659568  -0.7672027255
	    C   3.4797382763   1.0506984828   0.6382692569
	    C   3.4772666274  -0.2876768851   1.0673496143
	    C   3.4791617275  -1.1119479938  -0.0706257218
	    C   3.4829458275  -0.2867254266  -1.2083476029
	    C  -3.4787655308   0.9014662161  -0.6387224111
	    C  -3.4756354511   0.9027286896   0.7719356348
	    C  -3.4792165530  -0.4296253492   1.1918608772
	    C  -3.4825449609  -1.2505477732   0.0472008595
	    C  -3.4829355446  -0.4167686995  -1.0862952015
	    H   3.5341064313   1.9358433996  -1.4070406135
	    H   3.5237930670   1.9332558627   1.2807188720
	    H   3.5163435120  -0.6272906447   2.1051754083
	    H   3.5200737379  -2.2038608070  -0.0723529560
	    H   3.5301000071  -0.6211101734  -2.2473166829
	    H  -3.5138617722   1.7848333558  -1.2811494297
	    H  -3.5162432096   1.7819198385   1.4189496002
	    H  -3.5311524643  -0.7714937893   2.2284645787
	    H  -3.5352762016  -2.3420218148   0.0385109934
	    H  -3.5275419085  -0.7399557625  -2.1289339796
	   Mg   1.4155419663   0.0592870925  -0.0545602836
	   Mg  -1.4211556921  -0.1252315944   0.0811858360


    Structure for next step:
    Molecular point group: c1
    Full point group: C1

    Geometry (in Angstrom), charge = 0, multiplicity = 1:

    C       
    C             1         dcc
    C             2         dcc      1  107.799131
    C             3         dcc      2  108.141058      1   -0.108394
    C             4         dcc      3  108.128683      2    0.005670
    C             1         drr      2   88.700068      3   88.740270
    C             2         drr      3   88.402810      4   90.790730
    C             3         drr      4   90.221896      5   91.685070
    C             8         dcc      7  108.153855      6    0.085089
    C             9         dcc      8  108.015290      7   -0.082874
    H             1         dch      2  125.874523      3 -177.069763
    H             2         dch      3  126.142755      4 -177.097149
    H             3         dch      4  125.933023      5 -177.275491
    H             4         dch      5  125.827517      1 -177.173494
    H             5         dch      1  126.043178      2 -177.151015
    H             6         dch      7  125.958663      8  177.624558
    H             7         dch      8  126.120520      9  177.160665
    H             8         dch      9  126.045167     10  176.558761
    H             9         dch     10  125.832152      6  176.761368
    H            10         dch      6  125.949278      7  177.309449
    MG            1        dcbe     11       achbe      6    0.246985
    MG            6        dcbe     16       achbe      1   -0.484920

    achbe     =  123.1939424814
    dcbe      =    2.4095921909
    dcc       =    1.4071250892
    dch       =    1.0924903784
    drr       =    6.9590452405


PsiException: Could not converge geometry optimization in 50 iterations.


Traceback (most recent call last):
  File "/opt/psi/4/1.9a/bin/psi4", line 372, in <module>
    exec(content)
  File "<string>", line 61, in <module>
  File "/opt/psi/4/1.9a/lib/psi4/driver/driver.py", line 1356, in optimize
    raise OptimizationConvergenceError("""geometry optimization""", n - 1, wfn)

psi4.driver.p4util.exceptions.OptimizationConvergenceError: Could not converge geometry optimization in 50 iterations.


Printing out the relevant lines from the Psithon --> Python processed input file:
        dch = 1.07749
        dcbe = {dist_cmg}
        achbe = {angle_hcmg}
    """)
    core.set_local_option("OPTKING", "FROZEN_DISTANCE", "(""        1 6    "")")
--> energy = optimize("mp2/cc-pVDZ")
    mgcp.save_xyz_file("out/structs/dimgce-" + str(os.environ["SGE_TASK_ID"]) + ".xyz", True)
    fstr = ""
    with open("out/structs/dimgce-" + str(os.environ["SGE_TASK_ID"]) + ".xyz", "r") as fp :
        for line in fp :
            if len(line) == 0 :

!-------------------------------------------------------------!
!                                                             !
!  Could not converge geometry optimization in 50 iterations. !
!                                                             !
!-------------------------------------------------------------!

    Psi4 stopped on: Thursday, 24 August 2023 04:02AM
    Psi4 wall time for execution: 0:36:14.83

*** Psi4 encountered an error. Buy a developer more coffee!
*** Resources and help at github.com/psi4/psi4.
