
    -----------------------------------------------------------------------
          Psi4: An Open-Source Ab Initio Electronic Structure Package
                               Psi4 1.9a1.dev12 

                         Git: Rev {master} 6ebe472 dirty


    D. G. A. Smith, L. A. Burns, A. C. Simmonett, R. M. Parrish,
    M. C. Schieber, R. Galvelis, P. Kraus, H. Kruse, R. Di Remigio,
    A. Alenaizan, A. M. James, S. Lehtola, J. P. Misiewicz, M. Scheurer,
    R. A. Shaw, J. B. Schriber, Y. Xie, Z. L. Glick, D. A. Sirianni,
    J. S. O'Brien, J. M. Waldrop, A. Kumar, E. G. Hohenstein,
    B. P. Pritchard, B. R. Brooks, H. F. Schaefer III, A. Yu. Sokolov,
    K. Patkowski, A. E. DePrince III, U. Bozkaya, R. A. King,
    F. A. Evangelista, J. M. Turney, T. D. Crawford, C. D. Sherrill,
    J. Chem. Phys. 152(18) 184108 (2020). https://doi.org/10.1063/5.0006002

                            Additional Code Authors
    E. T. Seidl, C. L. Janssen, E. F. Valeev, M. L. Leininger,
    J. F. Gonthier, R. M. Richard, H. R. McAlexander, M. Saitow, X. Wang,
    P. Verma, M. H. Lechner, A. Jiang, S. Behnle, A. G. Heide,
    M. F. Herbst, and D. L. Poole

             Previous Authors, Complete List of Code Contributors,
                       and Citations for Specific Modules
    https://github.com/psi4/psi4/blob/master/codemeta.json
    https://github.com/psi4/psi4/graphs/contributors
    http://psicode.org/psi4manual/master/introduction.html#citing-psifour

    -----------------------------------------------------------------------


    Psi4 started on: Thursday, 24 August 2023 02:40AM

    Process ID: 1353
    Host:       n039
    PSIDATADIR: /opt/psi/4/1.9a/share/psi4
    Memory:     500.0 MiB
    Threads:    4
    
  ==> Input File <==

--------------------------------------------------------------------------
import os

set reference rhf

import numpy as np
import pickle
import math
import time

print(os.environ["SGE_TASK_ID"])

angle_param = np.linspace(0, 72, 10)[int(os.environ["SGE_TASK_ID"]) - 1]
alpha = angle_param / 180 * math.pi
 

mgcp = geometry(f""" 
    0 1
    symmetry c1
    units angstrom

    C
    C 1 dcc
    C 2 dcc 1 108
    C 3 dcc 2 108 1 0
    C 4 dcc 3 108 2 0
    C 1 drr 2 90  3 90
    C 2 drr 3 90  4 90
    C 3 drr 4 90  5 90
    C 8 dcc 7 108 6 0
    C 9 dcc 8 108 7 0
    H 1 dch 2 126 3 180
    H 2 dch 3 126 4 180
    H 3 dch 4 126 5 180
    H 4 dch 5 126 1 180
    H 5 dch 1 126 2 180
    H 6 dch 7 126 8 180
    H 7 dch 8 126 9 180
    H 8 dch 9 126 10 180
    H 9 dch 10 126 6 180
    H 10 dch 6 126 7 180
    Mg 1 dcbe 11 achbe 6 0
    Mg 6 dcbe 16 achbe 1 0

    dcc = 1.33
    drr = 6.12
    dch = 1.088
    dcbe = 2.23 
    achbe = 128.09
""")

# Translate to the center of mass.
mgcp.move_to_com()

# Change units to Bohr. There seems to be an implicit conversion somewhere.
mgcp.set_units(psi4.core.Bohr)

# Rotate so that the heavy atoms are on the z axis.
geo = list(zip([mgcp.symbol(i) for i in range(mgcp.nallatom())], list(mgcp.geometry().to_array())))

# Find the first heavy atom.
ez = None
for atom in geo :
    if atom[0].lower() in ["be", "mg", "ca", "sr", "ba"] :
        ez = atom[1]
        break
if ez is None :
    raise ArithmeticError("Could not find heavy atom!")

# Normalize.
ez = ez / np.linalg.norm(ez)

# Find the other two directions.
ex = np.array([1, 0, 0]) - np.dot(np.array([1, 0, 0]), ez) * ez
if np.linalg.norm(ex) < 1e-6 :
    ex = np.array([0, 0, 1]) - np.dot(np.array([0, 0, 1]), ez) * ez
ex = ex / np.linalg.norm(ex)

ey = np.array([0, 1, 0]) - np.dot(np.array([0, 1, 0]), ex) * ex - np.dot(np.array([0, 1, 0]), ez) * ez

if np.linalg.norm(ey) < 1e-6 :
    ey = np.array([1, 0, 0]) - np.dot(np.array([1, 0, 0]), ex) * ex - np.dot(np.array([1, 0, 0]), ez) * ez
    if np.linalg.norm(ey) < 1e-6 :
        ey = np.array([0, 0, 1]) - np.dot(np.array([0, 0, 1]), ex) * ex - np.dot(np.array([0, 0, 1]), ez) * ez
ey = ey / np.linalg.norm(ey)

# Make sure the coordinates are right-handed.
if np.dot(np.cross(ex, ey), ez) < 0 :
    ex, ey = ey, ex

positions = []
# Go through and rotate.
for i in range(mgcp.nallatom()) :
    vector = geo[i][1] 
    positions.append(np.array([np.dot(ex, vector), np.dot(ey, vector), np.dot(ez, vector)]))

# Rotate all atoms with a postitive z.
rot = np.array([[math.cos(alpha), -math.sin(alpha), 0], [math.sin(alpha), math.cos(alpha), 0], [0, 0, 1]])
for i in range(len(positions)) :
    if positions[i].item(2) > 0 :
        positions[i] = np.matmul(rot, positions[i])

# Generate new geometry.
geostr = "0 1\nsymmetry c1\nunits angstrom\n"

for i in range(len(positions)) :
    geostr += f"{mgcp.symbol(i)} {positions[i].item(0)} {positions[i].item(1)} {positions[i].item(2)}\n"

# Set new geometry.
mgcp = geometry(geostr)

set optking {
    frozen_dihedral = ("
        1 21 22 6
        2 21 22 7
        3 21 22 8
        4 21 22 9
        5 21 22 10
    ")
}

energy = optimize("mp2/cc-pVDZ")

mgcp.save_xyz_file("out/structs/dimgce_angle-" + str(os.environ["SGE_TASK_ID"]) + ".xyz", True)

fstr = ""
with open("out/structs/dimgce_angle-" + str(os.environ["SGE_TASK_ID"]) + ".xyz", "r") as fp :
    for line in fp :
        if len(line) == 0 :
            continue
        newline = line[0]
        for i in range(1, len(line)) :
            if line[i - 1].isupper() and line[i].isupper() :
                newline += line[i].lower()
            else :
                newline += line[i]
        fstr += newline
with open("out/structs/dimgce_angle-" + str(os.environ["SGE_TASK_ID"]) + ".xyz", "w") as fp :
    print(fstr, file = fp)

while os.path.isfile("out/lock.dimgce_angle_energies.dat") :
    time.sleep(0.03)
with open("out/lock.dimgce_angle_energies.dat", "w+") as _ :
    with open("out/dimgce_angle_energies.dat", "ba+") as fp :
        fp.write(pickle.dumps(angle_param))
        fp.write(pickle.dumps(energy))
os.remove("out/lock.dimgce_angle_energies.dat")

while os.path.isfile("out/lock.dimgce_angle_energies.txt") :
    time.sleep(0.03)

with open("out/lock.dimgce_angle_energies.txt", "w+") as _ :
    with open("out/dimgce_angle_energies.txt", "a+") as fp :
        print(f"Distance: {angle_param}, Energy: {energy}", file = fp)
os.remove("out/lock.dimgce_angle_energies.txt")
--------------------------------------------------------------------------

Scratch directory: /tmp/929718.10.gen4.q/
gradient() will perform analytic gradient computation.
    SCF Algorithm Type (re)set to DF.
   => Libint2 <=

    Primary   basis highest AM E, G, H:  5, 4, 3
    Auxiliary basis highest AM E, G, H:  6, 5, 4
    Onebody   basis highest AM E, G, H:  6, 5, 4
    Solid Harmonics ordering:            gaussian

*** tstart() called on n039
*** at Thu Aug 24 02:40:16 2023

   => Loading Basis Set <=

    Name: CC-PVDZ
    Role: ORBITAL
    Keyword: BASIS
    atoms 1-10  entry C          line   138 file /opt/psi/4/1.9a/share/psi4/basis/cc-pvdz.gbs 
    atoms 11-20 entry H          line    22 file /opt/psi/4/1.9a/share/psi4/basis/cc-pvdz.gbs 
    atoms 21-22 entry MG         line   353 file /opt/psi/4/1.9a/share/psi4/basis/cc-pvdz.gbs 


         ---------------------------------------------------------
                                   SCF
               by Justin Turney, Rob Parrish, Andy Simmonett
                          and Daniel G. A. Smith
                              RHF Reference
                        4 Threads,    500 MiB Core
         ---------------------------------------------------------

  ==> Geometry <==

    Molecular point group: c1
    Full point group: C1

    Geometry (in Angstrom), charge = 0, multiplicity = 1:

       Center              X                  Y                   Z               Mass       
    ------------   -----------------  -----------------  -----------------  -----------------
         C           -1.355770543899     0.615828235644     2.869517968636    12.000000000000
         C           -0.951637524458    -0.646848117379     2.975465739327    12.000000000000
         C            0.367263436974    -0.643241821139     3.146892833338    12.000000000000
         C            0.778256039493     0.621663345533     3.146892833338    12.000000000000
         C           -0.286637524458     1.399811434842     2.975465739327    12.000000000000
         C            0.166731317890     0.892573613512    -3.194017920905    12.000000000000
         C           -0.909261284629     0.118031820443    -3.088070150214    12.000000000000
         C           -0.498268682110    -1.135203126450    -2.916643056203    12.000000000000
         C            0.831731317890    -1.135203126450    -2.916643056203    12.000000000000
         C            1.242723920408     0.118031820443    -3.088070150214    12.000000000000
         H           -2.380973267372     0.948936793132     2.722066062203     1.007825032230
         H           -1.588197765938    -1.528017157084     2.929900594387     1.007825032230
         H            0.999050295326    -1.520942794999     3.266183931496     1.007825032230
         H            1.805282033080     0.960383351434     3.266183931496     1.007825032230
         H           -0.283687411443     2.486852885018     2.929900594387     1.007825032230
         H            0.166731317890     1.970535549430    -3.341469827339     1.007825032230
         H           -1.944010774358     0.451140377931    -3.133635295155     1.007825032230
         H           -1.137779036605    -2.007292651898    -2.797351958046     1.007825032230
         H            1.471241672384    -2.007292651898    -2.797351958046     1.007825032230
         H            2.277473410137     0.451140377931    -3.133635295155     1.007825032230
         MG           0.166731317890     0.121137393197     1.317046052224    23.985041697000
         MG           0.166731317890    -0.232556029331    -1.268665151464    23.985041697000

  Running in c1 symmetry.

  Rotational constants: A =      0.08211  B =      0.01210  C =      0.01208 [cm^-1]
  Rotational constants: A =   2461.60966  B =    362.59927  C =    362.06323 [MHz]
  Nuclear repulsion =  746.203536636680610

  Charge       = 0
  Multiplicity = 1
  Electrons    = 94
  Nalpha       = 47
  Nbeta        = 47

  ==> Algorithm <==

  SCF Algorithm Type is DF.
  DIIS enabled.
  MOM disabled.
  Fractional occupation disabled.
  Guess Type is SAD.
  Energy threshold   = 1.00e-10
  Density threshold  = 1.00e-10
  Integral threshold = 1.00e-12

  ==> Primary Basis <==

  Basis Set: CC-PVDZ
    Blend: CC-PVDZ
    Number of shells: 106
    Number of basis functions: 226
    Number of Cartesian functions: 238
    Spherical Harmonics?: true
    Max angular momentum: 2

   => Loading Basis Set <=

    Name: (CC-PVDZ AUX)
    Role: JKFIT
    Keyword: DF_BASIS_SCF
    atoms 1-10  entry C          line   121 file /opt/psi/4/1.9a/share/psi4/basis/cc-pvdz-jkfit.gbs 
    atoms 11-20 entry H          line    51 file /opt/psi/4/1.9a/share/psi4/basis/cc-pvdz-jkfit.gbs 
    atoms 21-22 entry MG         line   576 file /opt/psi/4/1.9a/share/psi4/basis/def2-universal-jkfit.gbs 

  ==> Integral Setup <==

  ==> DiskDFJK: Density-Fitted J/K Matrices <==

    J tasked:                  Yes
    K tasked:                  Yes
    wK tasked:                  No
    OpenMP threads:              4
    Integrals threads:           4
    Memory [MiB]:              375
    Algorithm:                Core
    Integral Cache:           NONE
    Schwarz Cutoff:          1E-12
    Fitting Condition:       1E-10

   => Auxiliary Basis Set <=

  Basis Set: (CC-PVDZ AUX)
    Blend: CC-PVDZ-JKFIT + DEF2-UNIVERSAL-JKFIT
    Number of shells: 398
    Number of basis functions: 1154
    Number of Cartesian functions: 1334
    Spherical Harmonics?: true
    Max angular momentum: 4

  Minimum eigenvalue in the overlap matrix is 6.5761726553E-04.
  Reciprocal condition number of the overlap matrix is 8.1103104803E-05.
    Using symmetric orthogonalization.

  ==> Pre-Iterations <==

  SCF Guess: Superposition of Atomic Densities via on-the-fly atomic UHF (no occupation information).

   -------------------------
    Irrep   Nso     Nmo    
   -------------------------
     A        226     226 
   -------------------------
    Total     226     226
   -------------------------

  ==> Iterations <==

                           Total Energy        Delta E     RMS |[F,P]|

   @DF-RHF iter SAD:  -785.95738585521735   -7.85957e+02   0.00000e+00 
   @DF-RHF iter   1:  -783.17785575522043    2.77953e+00   3.89751e-03 DIIS/ADIIS
   @DF-RHF iter   2:  -783.48024683261406   -3.02391e-01   2.36817e-03 DIIS/ADIIS
   @DF-RHF iter   3:  -783.61968510804581   -1.39438e-01   2.51738e-04 DIIS/ADIIS
   @DF-RHF iter   4:  -783.62245941524679   -2.77431e-03   4.62530e-05 DIIS
   @DF-RHF iter   5:  -783.62253505364106   -7.56384e-05   1.17207e-05 DIIS
   @DF-RHF iter   6:  -783.62254139470588   -6.34106e-06   2.05740e-06 DIIS
   @DF-RHF iter   7:  -783.62254164106957   -2.46364e-07   9.10504e-07 DIIS
   @DF-RHF iter   8:  -783.62254167423021   -3.31606e-08   2.30923e-07 DIIS
   @DF-RHF iter   9:  -783.62254167999276   -5.76256e-09   6.07706e-08 DIIS
   @DF-RHF iter  10:  -783.62254168053801   -5.45242e-10   1.77426e-08 DIIS
   @DF-RHF iter  11:  -783.62254168056234   -2.43290e-11   7.17010e-09 DIIS
   @DF-RHF iter  12:  -783.62254168056597   -3.63798e-12   1.89728e-09 DIIS
   @DF-RHF iter  13:  -783.62254168056597    0.00000e+00   4.87464e-10 DIIS
   @DF-RHF iter  14:  -783.62254168056529    6.82121e-13   2.16653e-10 DIIS
   @DF-RHF iter  15:  -783.62254168056620   -9.09495e-13   7.13057e-11 DIIS
  Energy and wave function converged.


  ==> Post-Iterations <==

    Orbital Energies [Eh]
    ---------------------

    Doubly Occupied:                                                      

       1A    -48.964546     2A    -48.964468     3A    -11.207896  
       4A    -11.207812     5A    -11.206596     6A    -11.206560  
       7A    -11.205581     8A    -11.205461     9A    -11.204236  
      10A    -11.203812    11A    -11.202516    12A    -11.202277  
      13A     -3.723188    14A     -3.722982    15A     -2.246572  
      16A     -2.244378    17A     -2.241105    18A     -2.241041  
      19A     -2.240731    20A     -2.240652    21A     -1.245307  
      22A     -1.245212    23A     -0.986166    24A     -0.986045  
      25A     -0.985454    26A     -0.985349    27A     -0.742146  
      28A     -0.742108    29A     -0.742017    30A     -0.741977  
      31A     -0.725178    32A     -0.725042    33A     -0.589872  
      34A     -0.586403    35A     -0.550546    36A     -0.550416  
      37A     -0.550387    38A     -0.550275    39A     -0.529884  
      40A     -0.529748    41A     -0.529400    42A     -0.529307  
      43A     -0.338548    44A     -0.338410    45A     -0.335967  
      46A     -0.335925    47A     -0.254698  

    Virtual:                                                              

      48A      0.072678    49A      0.073052    50A      0.135369  
      51A      0.143312    52A      0.168007    53A      0.170957  
      54A      0.187243    55A      0.207231    56A      0.210412  
      57A      0.212833    58A      0.214886    59A      0.222847  
      60A      0.225540    61A      0.237825    62A      0.241345  
      63A      0.255969    64A      0.257710    65A      0.258821  
      66A      0.260185    67A      0.261060    68A      0.317825  
      69A      0.320116    70A      0.323760    71A      0.324377  
      72A      0.411276    73A      0.420613    74A      0.425012  
      75A      0.425466    76A      0.426983    77A      0.444034  
      78A      0.449252    79A      0.450299    80A      0.452360  
      81A      0.457187    82A      0.457973    83A      0.498408  
      84A      0.528772    85A      0.530753    86A      0.560267  
      87A      0.568788    88A      0.588530    89A      0.610111  
      90A      0.614759    91A      0.630041    92A      0.631594  
      93A      0.638851    94A      0.668434    95A      0.668638  
      96A      0.699065    97A      0.716520    98A      0.773990  
      99A      0.774959   100A      0.776181   101A      0.784879  
     102A      0.790568   103A      0.794493   104A      0.821205  
     105A      0.821676   106A      0.837886   107A      0.839231  
     108A      0.852820   109A      0.860738   110A      0.862590  
     111A      0.867490   112A      0.868839   113A      0.931827  
     114A      0.936401   115A      0.943254   116A      0.947495  
     117A      0.952871   118A      0.963439   119A      1.010943  
     120A      1.017315   121A      1.023502   122A      1.029542  
     123A      1.037109   124A      1.059332   125A      1.067581  
     126A      1.080706   127A      1.119405   128A      1.119582  
     129A      1.127575   130A      1.215088   131A      1.218127  
     132A      1.220038   133A      1.232029   134A      1.251185  
     135A      1.252957   136A      1.274724   137A      1.276255  
     138A      1.317166   139A      1.317920   140A      1.319544  
     141A      1.323673   142A      1.331081   143A      1.338324  
     144A      1.348412   145A      1.352997   146A      1.361991  
     147A      1.535081   148A      1.542652   149A      1.544897  
     150A      1.547692   151A      1.564602   152A      1.572480  
     153A      1.619939   154A      1.639442   155A      1.730952  
     156A      1.735696   157A      1.782323   158A      1.782616  
     159A      1.796146   160A      1.799391   161A      1.867188  
     162A      1.878918   163A      1.889005   164A      1.898387  
     165A      1.919788   166A      1.926786   167A      1.937377  
     168A      1.940731   169A      1.942491   170A      1.944266  
     171A      1.946505   172A      1.978459   173A      1.983994  
     174A      1.985726   175A      1.985774   176A      1.992258  
     177A      2.063499   178A      2.075128   179A      2.076747  
     180A      2.082020   181A      2.083335   182A      2.133765  
     183A      2.154737   184A      2.163785   185A      2.172473  
     186A      2.172723   187A      2.182815   188A      2.198603  
     189A      2.270687   190A      2.271439   191A      2.278212  
     192A      2.279831   193A      2.297598   194A      2.298765  
     195A      2.318287   196A      2.321387   197A      2.358384  
     198A      2.360958   199A      2.375953   200A      2.383442  
     201A      2.435071   202A      2.435173   203A      2.510497  
     204A      2.510647   205A      2.517447   206A      2.518182  
     207A      2.731661   208A      2.732683   209A      2.838146  
     210A      2.840429   211A      2.848770   212A      2.854348  
     213A      2.991977   214A      2.992541   215A      2.999920  
     216A      3.000487   217A      3.102590   218A      3.102729  
     219A      3.202695   220A      3.207145   221A      3.236371  
     222A      3.241288   223A      3.772507   224A      3.776948  
     225A      3.786133   226A      3.795020  

    Final Occupation by Irrep:
              A 
    DOCC [    47 ]
    NA   [    47 ]
    NB   [    47 ]

  @DF-RHF Final Energy:  -783.62254168056620

   => Energetics <=

    Nuclear Repulsion Energy =            746.2035366366806102
    One-Electron Energy =               -2561.9837584154247452
    Two-Electron Energy =                1032.1576800981779343
    Total Energy =                       -783.6225416805662007

Computation Completed


Properties will be evaluated at   0.000000,   0.000000,   0.000000 [a0]

Properties computed using the SCF density matrix


 Multipole Moments:

 ------------------------------------------------------------------------------------
     Multipole            Electronic (a.u.)      Nuclear  (a.u.)        Total (a.u.)
 ------------------------------------------------------------------------------------

 L = 1.  Multiply by 2.5417464519 to convert [e a0] to [Debye]
 Dipole X            :          0.6466469           -0.5717084            0.0749385
 Dipole Y            :         -0.2372794            0.1910228           -0.0462566
 Dipole Z            :          0.1059839           -0.0829471            0.0230368
 Magnitude           :                                                    0.0910283

 ------------------------------------------------------------------------------------

*** tstop() called on n039 at Thu Aug 24 02:40:25 2023
Module time:
	user time   =      30.54 seconds =       0.51 minutes
	system time =       0.45 seconds =       0.01 minutes
	total time  =          9 seconds =       0.15 minutes
Total time:
	user time   =      30.54 seconds =       0.51 minutes
	system time =       0.45 seconds =       0.01 minutes
	total time  =          9 seconds =       0.15 minutes

*** tstart() called on n039
*** at Thu Aug 24 02:40:25 2023


  //>>>>>>>>>>>>>>>>>>>>>>>>>>>>>>>>>>>//
  //               DFMP2               //
  //<<<<<<<<<<<<<<<<<<<<<<<<<<<<<<<<<<<//

   => Loading Basis Set <=

    Name: (CC-PVDZ AUX)
    Role: RIFIT
    Keyword: DF_BASIS_MP2
    atoms 1-10  entry C          line   159 file /opt/psi/4/1.9a/share/psi4/basis/cc-pvdz-ri.gbs 
    atoms 11-20 entry H          line    19 file /opt/psi/4/1.9a/share/psi4/basis/cc-pvdz-ri.gbs 
    atoms 21-22 entry MG         line   399 file /opt/psi/4/1.9a/share/psi4/basis/cc-pvdz-ri.gbs 

	 --------------------------------------------------------
	                          DF-MP2                         
	      2nd-Order Density-Fitted Moller-Plesset Theory     
	              RMP2 Wavefunction,   4 Threads             
	                                                         
	        Rob Parrish, Justin Turney, Andy Simmonett,      
	           Ed Hohenstein, and C. David Sherrill          
	 --------------------------------------------------------

   => Auxiliary Basis Set <=

  Basis Set: (CC-PVDZ AUX)
    Blend: CC-PVDZ-RI
    Number of shells: 288
    Number of basis functions: 852
    Number of Cartesian functions: 990
    Spherical Harmonics?: true
    Max angular momentum: 3

	 --------------------------------------------------------
	                 NBF =   226, NAUX =   852
	 --------------------------------------------------------
	   CLASS    FOCC     OCC    AOCC    AVIR     VIR    FVIR
	   PAIRS       0      47      47     179     179       0
	 --------------------------------------------------------


         ------------------------------------------------------------
                                     CPHF                           
                                  Rob Parrish                       
         ------------------------------------------------------------

  ==> Geometry <==

    Molecular point group: c1
    Full point group: C1

    Geometry (in Angstrom), charge = 0, multiplicity = 1:

       Center              X                  Y                   Z               Mass       
    ------------   -----------------  -----------------  -----------------  -----------------
         C           -1.355770543899     0.615828235644     2.869517968636    12.000000000000
         C           -0.951637524458    -0.646848117379     2.975465739327    12.000000000000
         C            0.367263436974    -0.643241821139     3.146892833338    12.000000000000
         C            0.778256039493     0.621663345533     3.146892833338    12.000000000000
         C           -0.286637524458     1.399811434842     2.975465739327    12.000000000000
         C            0.166731317890     0.892573613512    -3.194017920905    12.000000000000
         C           -0.909261284629     0.118031820443    -3.088070150214    12.000000000000
         C           -0.498268682110    -1.135203126450    -2.916643056203    12.000000000000
         C            0.831731317890    -1.135203126450    -2.916643056203    12.000000000000
         C            1.242723920408     0.118031820443    -3.088070150214    12.000000000000
         H           -2.380973267372     0.948936793132     2.722066062203     1.007825032230
         H           -1.588197765938    -1.528017157084     2.929900594387     1.007825032230
         H            0.999050295326    -1.520942794999     3.266183931496     1.007825032230
         H            1.805282033080     0.960383351434     3.266183931496     1.007825032230
         H           -0.283687411443     2.486852885018     2.929900594387     1.007825032230
         H            0.166731317890     1.970535549430    -3.341469827339     1.007825032230
         H           -1.944010774358     0.451140377931    -3.133635295155     1.007825032230
         H           -1.137779036605    -2.007292651898    -2.797351958046     1.007825032230
         H            1.471241672384    -2.007292651898    -2.797351958046     1.007825032230
         H            2.277473410137     0.451140377931    -3.133635295155     1.007825032230
         MG           0.166731317890     0.121137393197     1.317046052224    23.985041697000
         MG           0.166731317890    -0.232556029331    -1.268665151464    23.985041697000

  Nuclear repulsion =  746.203536636680610
  Reference energy  = -783.622541680566201

  ==> Basis Set <==

  Basis Set: CC-PVDZ
    Blend: CC-PVDZ
    Number of shells: 106
    Number of basis functions: 226
    Number of Cartesian functions: 238
    Spherical Harmonics?: true
    Max angular momentum: 2

  ==> CGRSolver (by Rob Parrish) <==

   Number of roots    =         1
   Preconditioning    =    JACOBI
   Convergence cutoff =     1E-06
   Maximum iterations =       100

  ==> CPHFRHamiltonian (by Rob Parrish) <== 

  ==> DiskDFJK: Density-Fitted J/K Matrices <==

    J tasked:                  Yes
    K tasked:                  Yes
    wK tasked:                  No
    OpenMP threads:              4
    Integrals threads:           4
    Memory [MiB]:              375
    Algorithm:                Core
    Integral Cache:           NONE
    Schwarz Cutoff:          1E-12
    Fitting Condition:       1E-10

   => Auxiliary Basis Set <=

  Basis Set: (CC-PVDZ AUX)
    Blend: CC-PVDZ-JKFIT + DEF2-UNIVERSAL-JKFIT
    Number of shells: 398
    Number of basis functions: 1154
    Number of Cartesian functions: 1334
    Spherical Harmonics?: true
    Max angular momentum: 4

  ==> CPHF Iterations <==

  => Iterations <=

             Iter  Converged  Remaining    Residual
  CGR           1          0          1   6.645E-02
  CGR           2          0          1   1.077E-02
  CGR           3          0          1   2.298E-03
  CGR           4          0          1   9.360E-04
  CGR           5          0          1   3.500E-04
  CGR           6          0          1   8.228E-05
  CGR           7          0          1   2.185E-05
  CGR           8          0          1   1.029E-05
  CGR           9          0          1   2.908E-06
  CGR          10          0          1   1.158E-06
  CGR          11          1          0   3.075E-07

    CGRSolver converged.

  ==> DFCorrGrad: Density-Fitted Correlated Gradients <==

    OpenMP threads:              4
    Integrals threads:           4
    Memory [GiB]:            0.366
    Schwarz Cutoff:          0E+00
    Fitting Condition:       1E-10

   => Auxiliary Basis Set <=

  Basis Set: (CC-PVDZ AUX)
    Blend: CC-PVDZ-JKFIT + DEF2-UNIVERSAL-JKFIT
    Number of shells: 398
    Number of basis functions: 1154
    Number of Cartesian functions: 1334
    Spherical Harmonics?: true
    Max angular momentum: 4

	-----------------------------------------------------------
	 ==================> DF-MP2 Energies <==================== 
	-----------------------------------------------------------
	 Reference Energy          =    -783.6225416805662007 [Eh]
	 Singles Energy            =      -0.0000000000000000 [Eh]
	 Same-Spin Energy          =      -0.3859425332355608 [Eh]
	 Opposite-Spin Energy      =      -1.0429605511872646 [Eh]
	 Correlation Energy        =      -1.4289030844228254 [Eh]
	 Total Energy              =    -785.0514447649890144 [Eh]
	-----------------------------------------------------------
	 ================> DF-SCS-MP2 Energies <================== 
	-----------------------------------------------------------
	 SCS Same-Spin Scale       =       0.3333333333333333 [-]
	 SCS Opposite-Spin Scale   =       1.2000000000000000 [-]
	 SCS Same-Spin Energy      =      -0.1286475110785203 [Eh]
	 SCS Opposite-Spin Energy  =      -1.2515526614247174 [Eh]
	 SCS Correlation Energy    =      -1.3802001725032378 [Eh]
	 SCS Total Energy          =    -785.0027418530694376 [Eh]
	-----------------------------------------------------------


  -Total Gradient:
     Atom            X                  Y                   Z
    ------   -----------------  -----------------  -----------------
       1        0.126261151136    -0.040500132036     0.011212286647
       2        0.083319172485     0.109560282102    -0.008784739530
       3       -0.078869971737     0.120040954727    -0.053199999419
       4       -0.135589678681    -0.049851936931    -0.052009383656
       5        0.003397786874    -0.138596520974    -0.006789217604
       6       -0.000133601718    -0.131130050527     0.024335823768
       7        0.130690192713    -0.041891427515     0.019292668668
       8        0.089192200612     0.122957272715     0.020565592420
       9       -0.089318726952     0.122709033015     0.020971004770
      10       -0.130481253806    -0.041603424119     0.019772518499
      11        0.002422694200    -0.000821216622     0.000702375387
      12        0.001328507449     0.002371894495     0.000031577103
      13       -0.001715029900     0.002272733886    -0.001988777403
      14       -0.002818371162    -0.000930699131    -0.002261639068
      15       -0.000302203237    -0.002888022292    -0.000200490699
      16        0.000004990614    -0.002686850153     0.000067884518
      17        0.002787522949    -0.000541054196     0.000297067840
      18        0.001689264176     0.002808111002     0.001379988840
      19       -0.001662441430     0.002771193266     0.001313057230
      20       -0.002749452851    -0.000540080431     0.000217648808
      21        0.003798052774    -0.002269259912     0.094854511144
      22       -0.001250804508    -0.031240800367    -0.089779758266


*** tstop() called on n039 at Thu Aug 24 02:40:56 2023
Module time:
	user time   =     109.90 seconds =       1.83 minutes
	system time =       1.49 seconds =       0.02 minutes
	total time  =         31 seconds =       0.52 minutes
Total time:
	user time   =     140.44 seconds =       2.34 minutes
	system time =       1.95 seconds =       0.03 minutes
	total time  =         40 seconds =       0.67 minutes

    			-----------------------------------------

    			 OPTKING 3.0: for geometry optimizations 

    			     By R.A. King, Bethel University     

    			        with contributions from          

    			    A.V. Copan, J. Cayton, A. Heide      

    			-----------------------------------------

    
	                            ===> Fragment 1 <== 

	 Z (Atomic Numbers)          Masses                          Geom                  
	       6.000000            12.000000         -2.56203502  1.16374671  5.42260307   
	       6.000000            12.000000         -1.79833429 -1.22236579  5.62281534   
	       6.000000            12.000000          0.69402731 -1.21555087  5.94676560   
	       6.000000            12.000000          1.47069077  1.17477347  5.94676560   
	       6.000000            12.000000         -0.54166642  2.64526024  5.62281534   
	       6.000000            12.000000          0.31507653  1.68671968 -6.03581911   
	       6.000000            12.000000         -1.71825480  0.22304781 -5.83560684   
	       6.000000            12.000000         -0.94159135 -2.14522301 -5.51165658   
	       6.000000            12.000000          1.57174440 -2.14522301 -5.51165658   
	       6.000000            12.000000          2.34840786  0.22304781 -5.83560684   
	       1.000000             1.007825         -4.49938739  1.79323065  5.14395935   
	       1.000000             1.007825         -3.00125881 -2.88753394  5.53670970   
	       1.000000             1.007825          1.88793144 -2.87416534  6.17219311   
	       1.000000             1.007825          3.41148862  1.81486151  6.17219311   
	       1.000000             1.007825         -0.53609151  4.69947087  5.53670970   
	       1.000000             1.007825          0.31507653  3.72377251 -6.31446283   
	       1.000000             1.007825         -3.67364795  0.85253176 -5.92171248   
	       1.000000             1.007825         -2.15009077 -3.79323337 -5.28622908   
	       1.000000             1.007825          2.78024383 -3.79323337 -5.28622908   
	       1.000000             1.007825          4.30380100  0.85253176 -5.92171248   
	      12.000000            23.985042          0.31507653  0.22891650  2.48885633   
	      12.000000            23.985042          0.31507653 -0.43946720 -2.39742968   

	 - Coordinate -           - BOHR/RAD -       - ANG/DEG -
	 R(1,2)           =         2.513336           1.330000
	 R(1,5)           =         2.513336           1.330000
	 R(1,11)          =         2.056022           1.088000
	 R(1,21)          =         4.214089           2.230000
	 R(2,3)           =         2.513336           1.330000
	 R(2,12)          =         2.056022           1.088000
	 R(2,21)          =         4.049003           2.142640
	 R(3,4)           =         2.513336           1.330000
	 R(3,13)          =         2.056022           1.088000
	 R(3,21)          =         3.766593           1.993195
	 R(4,5)           =         2.513336           1.330000
	 R(4,14)          =         2.056022           1.088000
	 R(4,21)          =         3.766593           1.993195
	 R(5,15)          =         2.056022           1.088000
	 R(5,21)          =         4.049003           2.142640
	 R(6,7)           =         2.513336           1.330000
	 R(6,10)          =         2.513336           1.330000
	 R(6,16)          =         2.056022           1.088000
	 R(6,22)          =         4.214089           2.230000
	 R(7,8)           =         2.513336           1.330000
	 R(7,17)          =         2.056022           1.088000
	 R(7,22)          =         4.049003           2.142640
	 R(8,9)           =         2.513336           1.330000
	 R(8,18)          =         2.056022           1.088000
	 R(8,22)          =         3.766593           1.993195
	 R(9,10)          =         2.513336           1.330000
	 R(9,19)          =         2.056022           1.088000
	 R(9,22)          =         3.766593           1.993195
	 R(10,20)         =         2.056022           1.088000
	 R(10,22)         =         4.049003           2.142640
	 R(21,22)         =         4.931787           2.609790
	 B(1,2,3)         =         1.884956         108.000000
	 B(1,2,12)        =         2.199115         126.000000
	 B(1,2,21)        =         1.324987          75.916153
	 B(1,5,4)         =         1.884956         108.000000
	 B(1,5,15)        =         2.199115         126.000000
	 B(1,5,21)        =         1.324987          75.916153
	 B(1,21,2)        =         0.616870          35.344041
	 B(1,21,3)        =         1.064021          60.963892
	 B(1,21,4)        =         1.064021          60.963892
	 B(1,21,5)        =         0.616870          35.344041
	 B(1,21,22)       =         2.374335         136.039372
	 B(2,1,5)         =         1.884956         108.000000
	 B(2,1,11)        =         2.199115         126.000000
	 B(2,1,21)        =         1.199736          68.739806
	 B(2,3,4)         =         1.884956         108.000000
	 B(2,3,13)        =         2.199115         126.000000
	 B(2,3,21)        =         1.351996          77.463687
	 B(2,21,3)        =         0.650935          37.295830
	 B(2,21,4)        =         1.092320          62.585316
	 B(2,21,5)        =         1.052237          60.288765
	 B(2,21,22)       =         2.372138         135.913486
	 B(3,2,12)        =         2.199115         126.000000
	 B(3,2,21)        =         1.138661          65.240482
	 B(3,4,5)         =         1.884956         108.000000
	 B(3,4,14)        =         2.199115         126.000000
	 B(3,4,21)        =         1.230639          70.510438
	 B(3,21,4)        =         0.680314          38.979124
	 B(3,21,5)        =         1.092320          62.585316
	 B(3,21,22)       =         2.601388         149.048558
	 B(4,3,13)        =         2.199115         126.000000
	 B(4,3,21)        =         1.230639          70.510438
	 B(4,5,15)        =         2.199115         126.000000
	 B(4,5,21)        =         1.138661          65.240482
	 B(4,21,5)        =         0.650935          37.295830
	 B(4,21,22)       =         2.804166         160.666864
	 B(5,1,11)        =         2.199115         126.000000
	 B(5,1,21)        =         1.199736          68.739806
	 B(5,4,14)        =         2.199115         126.000000
	 B(5,4,21)        =         1.351996          77.463687
	 B(5,21,22)       =         2.582515         147.967222
	 B(6,7,8)         =         1.884956         108.000000
	 B(6,7,17)        =         2.199115         126.000000
	 B(6,7,22)        =         1.324987          75.916153
	 B(6,10,9)        =         1.884956         108.000000
	 B(6,10,20)       =         2.199115         126.000000
	 B(6,10,22)       =         1.324987          75.916153
	 B(6,22,7)        =         0.616870          35.344041
	 B(6,22,8)        =         1.064021          60.963892
	 B(6,22,9)        =         1.064021          60.963892
	 B(6,22,10)       =         0.616870          35.344041
	 B(6,22,21)       =         2.476797         141.910000
	 B(7,6,10)        =         1.884956         108.000000
	 B(7,6,16)        =         2.199115         126.000000
	 B(7,6,22)        =         1.199736          68.739806
	 B(7,8,9)         =         1.884956         108.000000
	 B(7,8,18)        =         2.199115         126.000000
	 B(7,8,22)        =         1.351996          77.463687
	 B(7,22,8)        =         0.650935          37.295830
	 B(7,22,9)        =         1.092320          62.585316
	 B(7,22,10)       =         1.052237          60.288765
	 B(7,22,21)       =         2.530693         144.998006
	 B(8,7,17)        =         2.199115         126.000000
	 B(8,7,22)        =         1.138661          65.240482
	 B(8,9,10)        =         1.884956         108.000000
	 B(8,9,19)        =         2.199115         126.000000
	 B(8,9,22)        =         1.230639          70.510438
	 B(8,22,9)        =         0.680314          38.979124
	 B(8,22,10)       =         1.092320          62.585316
	 B(8,22,21)       =         2.647815         151.708599
	 B(9,8,18)        =         2.199115         126.000000
	 B(9,8,22)        =         1.230639          70.510438
	 B(9,10,20)       =         2.199115         126.000000
	 B(9,10,22)       =         1.138661          65.240482
	 B(9,22,10)       =         0.650935          37.295830
	 B(9,22,21)       =         2.647815         151.708599
	 B(10,6,16)       =         2.199115         126.000000
	 B(10,6,22)       =         1.199736          68.739806
	 B(10,9,19)       =         2.199115         126.000000
	 B(10,9,22)       =         1.351996          77.463687
	 B(10,22,21)      =         2.530693         144.998006
	 B(11,1,21)       =         2.235592         128.090000
	 B(12,2,21)       =         2.169123         124.281568
	 B(13,3,21)       =         2.058329         117.933589
	 B(14,4,21)       =         2.058329         117.933589
	 B(15,5,21)       =         2.169123         124.281568
	 B(16,6,22)       =         2.235592         128.090000
	 B(17,7,22)       =         2.169123         124.281568
	 B(18,8,22)       =         2.058329         117.933589
	 B(19,9,22)       =         2.058329         117.933589
	 B(20,10,22)      =         2.169123         124.281568
	 D(1,2,3,4)       =         0.000000           0.000000
	 D(1,2,3,13)      =         3.141593         180.000000
	 D(1,2,3,21)      =        -1.124507         -64.429478
	 D(1,2,21,3)      =         2.056188         117.810896
	 D(1,2,21,4)      =         1.355327          77.654539
	 D(1,2,21,5)      =         0.611412          35.031354
	 D(1,2,21,22)     =        -1.909984        -109.434021
	 D(1,5,4,3)       =        -0.000000          -0.000000
	 D(1,5,4,14)      =         3.141593         180.000000
	 D(1,5,4,21)      =         1.124507          64.429478
	 D(1,5,21,2)      =        -0.611412         -35.031354
	 D(1,5,21,3)      =        -1.355327         -77.654539
	 D(1,5,21,4)      =        -2.056188        -117.810896
	 D(1,5,21,22)     =         1.663218          95.295347
	 D(1,21,2,3)      =        -2.056188        -117.810896
	 D(1,21,2,12)     =         2.168066         124.221035
	 D(1,21,3,2)      =         0.625150          35.818475
	 D(1,21,3,4)      =        -1.373041         -78.669439
	 D(1,21,3,13)     =         2.794741         160.126870
	 D(1,21,4,3)      =         1.373041          78.669439
	 D(1,21,4,5)      =        -0.625150         -35.818475
	 D(1,21,4,14)     =        -2.794741        -160.126870
	 D(1,21,5,4)      =         2.056188         117.810896
	 D(1,21,5,15)     =        -2.168066        -124.221035
	*D(1,21,22,6)     =         1.389094          79.589239
	 D(1,21,22,7)     =         0.322662          18.487177
	 D(1,21,22,8)     =        -0.971573         -55.667045
	 D(1,21,22,9)     =        -2.533424        -145.154478
	 D(1,21,22,10)    =         2.455526         140.691300
	 D(2,1,5,4)       =         0.000000           0.000000
	 D(2,1,5,15)      =         3.141593         180.000000
	 D(2,1,5,21)      =         1.005664          57.620302
	 D(2,1,21,3)      =        -0.659832         -37.805609
	 D(2,1,21,4)      =        -1.442878         -82.670821
	 D(2,1,21,5)      =        -2.102710        -120.476430
	 D(2,1,21,22)     =         1.903473         109.060988
	 D(2,3,4,5)       =         0.000000           0.000000
	 D(2,3,4,14)      =         3.141593         180.000000
	 D(2,3,4,21)      =        -1.205642         -69.078170
	 D(2,3,21,4)      =         1.998191         114.487915
	 D(2,3,21,5)      =         1.327934          76.085031
	 D(2,3,21,22)     =        -1.686740         -96.643082
	 D(2,21,1,5)      =         2.102710         120.476430
	 D(2,21,1,11)     =        -2.090237        -119.761785
	 D(2,21,3,4)      =        -1.998191        -114.487915
	 D(2,21,3,13)     =         2.169591         124.308394
	 D(2,21,4,3)      =         0.670257          38.402883
	 D(2,21,4,5)      =        -1.327934         -76.085031
	 D(2,21,4,14)     =         2.785660         159.606574
	 D(2,21,5,4)      =         1.444776          82.779541
	 D(2,21,5,15)     =        -2.779479        -159.252389
	 D(2,21,22,6)     =         2.293203         131.390878
	*D(2,21,22,7)     =         1.226771          70.288816
	 D(2,21,22,8)     =        -0.067464          -3.865406
	 D(2,21,22,9)     =        -1.629314         -93.352838
	 D(2,21,22,10)    =        -2.923550        -167.507060
	 D(3,2,1,5)       =        -0.000000          -0.000000
	 D(3,2,1,11)      =         3.141593         180.000000
	 D(3,2,1,21)      =         1.005664          57.620302
	 D(3,2,21,4)      =        -0.700861         -40.156357
	 D(3,2,21,5)      =        -1.444776         -82.779541
	 D(3,2,21,22)     =         2.317013         132.755083
	 D(3,4,5,15)      =         3.141593         180.000000
	 D(3,4,5,21)      =        -1.124507         -64.429478
	 D(3,4,21,5)      =         1.998191         114.487915
	 D(3,4,21,22)     =        -2.208997        -126.566220
	 D(3,21,1,5)      =         1.442878          82.670821
	 D(3,21,1,11)     =        -2.750070        -157.567394
	 D(3,21,2,12)     =        -2.058931        -117.968070
	 D(3,21,4,5)      =        -1.998191        -114.487915
	 D(3,21,4,14)     =         2.115403         121.203691
	 D(3,21,5,4)      =         0.700861          40.156357
	 D(3,21,5,15)     =         2.759792         158.124426
	 D(3,21,22,6)     =        -2.944706        -168.719197
	 D(3,21,22,7)     =         2.272048         130.178741
	*D(3,21,22,8)     =         0.977812          56.024519
	 D(3,21,22,9)     =        -0.584038         -33.462913
	 D(3,21,22,10)    =        -1.878273        -107.617135
	 D(4,3,2,12)      =         3.141593         180.000000
	 D(4,3,2,21)      =         1.124507          64.429478
	 D(4,3,21,5)      =        -0.670257         -38.402883
	 D(4,3,21,22)     =         2.598254         148.869004
	 D(4,5,1,11)      =         3.141593         180.000000
	 D(4,5,1,21)      =        -1.005664         -57.620302
	 D(4,5,21,22)     =        -2.563780        -146.893757
	 D(4,21,1,5)      =         0.659832          37.805609
	 D(4,21,1,11)     =         2.750070         157.567394
	 D(4,21,2,12)     =        -2.759792        -158.124426
	 D(4,21,3,13)     =        -2.115403        -121.203691
	 D(4,21,5,15)     =         2.058931         117.968070
	 D(4,21,22,6)     =        -1.185637         -67.931986
	 D(4,21,22,7)     =        -2.252069        -129.034048
	 D(4,21,22,8)     =         2.736881         156.811730
	*D(4,21,22,9)     =         1.175031          67.324297
	 D(4,21,22,10)    =        -0.119205          -6.829925
	 D(5,1,2,12)      =         3.141593         180.000000
	 D(5,1,2,21)      =        -1.005664         -57.620302
	 D(5,1,21,22)     =        -2.277002        -130.462582
	 D(5,4,3,13)      =         3.141593         180.000000
	 D(5,4,3,21)      =         1.205642          69.078170
	 D(5,4,21,22)     =         2.075997         118.945865
	 D(5,21,1,11)     =         2.090237         119.761785
	 D(5,21,2,12)     =         2.779479         159.252389
	 D(5,21,3,13)     =        -2.785660        -159.606574
	 D(5,21,4,14)     =        -2.169591        -124.308394
	 D(5,21,22,6)     =         0.410348          23.511229
	 D(5,21,22,7)     =        -0.656084         -37.590833
	 D(5,21,22,8)     =        -1.950319        -111.745055
	 D(5,21,22,9)     =         2.771016         158.767513
	*D(5,21,22,10)    =         1.476781          84.613291
	 D(6,7,8,9)       =        -0.000000          -0.000000
	 D(6,7,8,18)      =         3.141593         180.000000
	 D(6,7,8,22)      =         1.124507          64.429478
	 D(6,7,22,8)      =        -2.056188        -117.810896
	 D(6,7,22,9)      =        -1.355327         -77.654539
	 D(6,7,22,10)     =        -0.611412         -35.031354
	 D(6,7,22,21)     =         1.937212         110.994078
	 D(6,10,9,8)      =        -0.000000          -0.000000
	 D(6,10,9,19)     =         3.141593         180.000000
	 D(6,10,9,22)     =        -1.124507         -64.429478
	 D(6,10,22,7)     =         0.611412          35.031354
	 D(6,10,22,8)     =         1.355327          77.654539
	 D(6,10,22,9)     =         2.056188         117.810896
	 D(6,10,22,21)    =        -1.937212        -110.994078
	 D(6,22,7,8)      =         2.056188         117.810896
	 D(6,22,7,17)     =        -2.168066        -124.221035
	 D(6,22,8,7)      =        -0.625150         -35.818475
	 D(6,22,8,9)      =         1.373041          78.669439
	 D(6,22,8,18)     =        -2.794741        -160.126870
	 D(6,22,9,8)      =        -1.373041         -78.669439
	 D(6,22,9,10)     =         0.625150          35.818475
	 D(6,22,9,19)     =         2.794741         160.126870
	 D(6,22,10,9)     =        -2.056188        -117.810896
	 D(6,22,10,20)    =         2.168066         124.221035
	 D(7,6,10,9)      =         0.000000           0.000000
	 D(7,6,10,20)     =         3.141593         180.000000
	 D(7,6,10,22)     =        -1.005664         -57.620302
	 D(7,6,22,8)      =         0.659832          37.805609
	 D(7,6,22,9)      =         1.442878          82.670821
	 D(7,6,22,10)     =         2.102710         120.476430
	 D(7,6,22,21)     =        -2.090237        -119.761785
	 D(7,8,9,10)      =         0.000000           0.000000
	 D(7,8,9,19)      =         3.141593         180.000000
	 D(7,8,9,22)      =         1.205642          69.078170
	 D(7,8,22,9)      =        -1.998191        -114.487915
	 D(7,8,22,10)     =        -1.327934         -76.085031
	 D(7,8,22,21)     =         1.996669         114.400682
	 D(7,22,6,10)     =        -2.102710        -120.476430
	 D(7,22,6,16)     =         2.090237         119.761785
	 D(7,22,8,9)      =         1.998191         114.487915
	 D(7,22,8,18)     =        -2.169591        -124.308394
	 D(7,22,9,8)      =        -0.670257         -38.402883
	 D(7,22,9,10)     =         1.327934          76.085031
	 D(7,22,9,19)     =        -2.785660        -159.606574
	 D(7,22,10,9)     =        -1.444776         -82.779541
	 D(7,22,10,20)    =         2.779479         159.252389
	 D(8,7,6,10)      =        -0.000000          -0.000000
	 D(8,7,6,16)      =         3.141593         180.000000
	 D(8,7,6,22)      =        -1.005664         -57.620302
	 D(8,7,22,9)      =         0.700861          40.156357
	 D(8,7,22,10)     =         1.444776          82.779541
	 D(8,7,22,21)     =        -2.289785        -131.195026
	 D(8,9,10,20)     =         3.141593         180.000000
	 D(8,9,10,22)     =         1.124507          64.429478
	 D(8,9,22,10)     =        -1.998191        -114.487915
	 D(8,9,22,21)     =         2.288326         131.111403
	 D(8,22,6,10)     =        -1.442878         -82.670821
	 D(8,22,6,16)     =         2.750070         157.567394
	 D(8,22,7,17)     =         2.058931         117.968070
	 D(8,22,9,10)     =         1.998191         114.487915
	 D(8,22,9,19)     =        -2.115403        -121.203691
	 D(8,22,10,9)     =        -0.700861         -40.156357
	 D(8,22,10,20)    =        -2.759792        -158.124426
	 D(9,8,7,17)      =         3.141593         180.000000
	 D(9,8,7,22)      =        -1.124507         -64.429478
	 D(9,8,22,10)     =         0.670257          38.402883
	 D(9,8,22,21)     =        -2.288326        -131.111403
	 D(9,10,6,16)     =         3.141593         180.000000
	 D(9,10,6,22)     =         1.005664          57.620302
	 D(9,10,22,21)    =         2.289785         131.195026
	 D(9,22,6,10)     =        -0.659832         -37.805609
	 D(9,22,6,16)     =        -2.750070        -157.567394
	 D(9,22,7,17)     =         2.759792         158.124426
	 D(9,22,8,18)     =         2.115403         121.203691
	 D(9,22,10,20)    =        -2.058931        -117.968070
	 D(10,6,7,17)     =         3.141593         180.000000
	 D(10,6,7,22)     =         1.005664          57.620302
	 D(10,6,22,21)    =         2.090237         119.761785
	 D(10,9,8,18)     =         3.141593         180.000000
	 D(10,9,8,22)     =        -1.205642         -69.078170
	 D(10,9,22,21)    =        -1.996669        -114.400682
	 D(10,22,6,16)    =        -2.090237        -119.761785
	 D(10,22,7,17)    =        -2.779479        -159.252389
	 D(10,22,8,18)    =         2.785660         159.606574
	 D(10,22,9,19)    =         2.169591         124.308394
	 D(11,1,2,12)     =         0.000000           0.000000
	 D(11,1,2,21)     =         2.135929         122.379698
	 D(11,1,5,15)     =        -0.000000          -0.000000
	 D(11,1,5,21)     =        -2.135929        -122.379698
	 D(11,1,21,22)    =        -0.186764         -10.700797
	 D(12,2,1,21)     =        -2.135929        -122.379698
	 D(12,2,3,13)     =        -0.000000          -0.000000
	 D(12,2,3,21)     =         2.017086         115.570522
	 D(12,2,21,22)    =         0.258082          14.787014
	 D(13,3,2,21)     =        -2.017086        -115.570522
	 D(13,3,4,14)     =        -0.000000          -0.000000
	 D(13,3,4,21)     =         1.935951         110.921830
	 D(13,3,21,22)    =         0.482851          27.665313
	 D(14,4,3,21)     =        -1.935951        -110.921830
	 D(14,4,5,15)     =         0.000000           0.000000
	 D(14,4,5,21)     =         2.017086         115.570522
	 D(14,4,21,22)    =        -0.093594          -5.362529
	 D(15,5,1,21)     =         2.135929         122.379698
	 D(15,5,4,21)     =        -2.017086        -115.570522
	 D(15,5,21,22)    =        -0.504848         -28.925688
	 D(16,6,7,17)     =        -0.000000          -0.000000
	 D(16,6,7,22)     =        -2.135929        -122.379698
	 D(16,6,10,20)    =         0.000000           0.000000
	 D(16,6,10,22)    =         2.135929         122.379698
	 D(16,6,22,21)    =        -0.000000          -0.000000
	 D(17,7,6,22)     =         2.135929         122.379698
	 D(17,7,8,18)     =         0.000000           0.000000
	 D(17,7,8,22)     =        -2.017086        -115.570522
	 D(17,7,22,21)    =        -0.230854         -13.226957
	 D(18,8,7,22)     =         2.017086         115.570522
	 D(18,8,9,19)     =        -0.000000          -0.000000
	 D(18,8,9,22)     =        -1.935951        -110.921830
	 D(18,8,22,21)    =        -0.172922          -9.907712
	 D(19,9,8,22)     =         1.935951         110.921830
	 D(19,9,10,20)    =         0.000000           0.000000
	 D(19,9,10,22)    =        -2.017086        -115.570522
	 D(19,9,22,21)    =         0.172922           9.907712
	 D(20,10,6,22)    =        -2.135929        -122.379698
	 D(20,10,9,22)    =         2.017086         115.570522
	 D(20,10,22,21)   =         0.230854          13.226957


	        --- Internal Coordinate Step in ANG or DEG, aJ/ANG or AJ/DEG ---
	-------------------------------------------------------------------------------
	           Coordinate      Previous         Force          Change          New 
	           ----------      --------        ------          ------        ------
	               R(1,2)       1.33000        0.61838        0.05839       1.38839
	               R(1,5)       1.33000        0.62942        0.05918       1.38918
	              R(1,11)       1.08800        0.02166        0.00233       1.09033
	              R(1,21)       2.23000        0.36025        0.04436       2.27436
	               R(2,3)       1.33000        0.62944        0.06005       1.39005
	              R(2,12)       1.08800        0.02224        0.00239       1.09039
	              R(2,21)       2.14264        0.38020        0.04872       2.19136
	               R(3,4)       1.33000        0.65828        0.06256       1.39256
	              R(3,13)       1.08800        0.02511        0.00270       1.09070
	              R(3,21)       1.99320        0.41571        0.05709       2.05029
	               R(4,5)       1.33000        0.64089        0.06095       1.39095
	              R(4,14)       1.08800        0.02635        0.00284       1.09084
	              R(4,21)       1.99320        0.41243        0.05648       2.04968
	              R(5,15)       1.08800        0.02371        0.00255       1.09055
	              R(5,21)       2.14264        0.37455        0.04770       2.19034
	               R(6,7)       1.33000        0.63736        0.05980       1.38980
	              R(6,10)       1.33000        0.62930        0.05914       1.38914
	              R(6,16)       1.08800        0.02201        0.00237       1.09037
	              R(6,22)       2.23000        0.35582        0.04362       2.27362
	               R(7,8)       1.33000        0.63593        0.06034       1.39034
	              R(7,17)       1.08800        0.02331        0.00251       1.09051
	              R(7,22)       2.14264        0.37341        0.04764       2.19028
	               R(8,9)       1.33000        0.65842        0.06266       1.39266
	              R(8,18)       1.08800        0.02548        0.00274       1.09074
	              R(8,22)       1.99320        0.41284        0.05668       2.04988
	              R(9,10)       1.33000        0.63411        0.06017       1.39017
	              R(9,19)       1.08800        0.02516        0.00271       1.09071
	              R(9,22)       1.99320        0.41371        0.05686       2.05006
	             R(10,20)       1.08800        0.02298        0.00247       1.09047
	             R(10,22)       2.14264        0.37534        0.04800       2.19064
	             R(21,22)       2.60979        0.15227        0.03057       2.64036
	             B(1,2,3)     108.00000        0.00003        0.04631     108.04631
	            B(1,2,12)     126.00000        0.00006        0.09601     126.09601
	            B(1,2,21)      75.91615       -0.00069       -0.74171      75.17444
	             B(1,5,4)     108.00000       -0.00001        0.01547     108.01547
	            B(1,5,15)     126.00000        0.00009        0.12116     126.12116
	            B(1,5,21)      75.91615       -0.00068       -0.71808      75.19807
	            B(1,21,2)      35.34404        0.00093        0.82234      36.16638
	            B(1,21,3)      60.96389        0.00170        1.43605      62.39994
	            B(1,21,4)      60.96389        0.00173        1.47344      62.43733
	            B(1,21,5)      35.34404        0.00096        0.85081      36.19486
	           B(1,21,22)     136.03937       -0.00128       -1.10542     134.93395
	             B(2,1,5)     108.00000        0.00008        0.09100     108.09100
	            B(2,1,11)     126.00000       -0.00005       -0.04908     125.95092
	            B(2,1,21)      68.73981       -0.00024       -0.08063      68.65918
	             B(2,3,4)     108.00000       -0.00003       -0.04704     107.95296
	            B(2,3,13)     126.00000        0.00004        0.08546     126.08546
	            B(2,3,21)      77.46369       -0.00087       -0.99680      76.46689
	            B(2,21,3)      37.29583        0.00095        0.78102      38.07685
	            B(2,21,4)      62.58532        0.00174        1.41105      63.99636
	            B(2,21,5)      60.28877        0.00170        1.45685      61.74562
	           B(2,21,22)     135.91349       -0.00125       -1.02609     134.88740
	            B(3,2,12)     126.00000       -0.00010       -0.14314     125.85686
	            B(3,2,21)      65.24048       -0.00009        0.21578      65.45626
	             B(3,4,5)     108.00000       -0.00008       -0.10583     107.89417
	            B(3,4,14)     126.00000        0.00000       -0.02112     125.97888
	            B(3,4,21)      70.51044       -0.00049       -0.34241      70.16802
	            B(3,21,4)      38.97912        0.00099        0.73214      39.71126
	            B(3,21,5)      62.58532        0.00175        1.41663      64.00194
	           B(3,21,22)     149.04856       -0.00084       -0.63757     148.41098
	            B(4,3,13)     126.00000       -0.00002       -0.04145     125.95855
	            B(4,3,21)      70.51044       -0.00051       -0.38973      70.12071
	            B(4,5,15)     126.00000       -0.00008       -0.13729     125.86271
	            B(4,5,21)      65.24048       -0.00009        0.21491      65.45540
	            B(4,21,5)      37.29583        0.00099        0.82312      38.11896
	           B(4,21,22)     160.66686       -0.00053       -0.42727     160.23959
	            B(5,1,11)     126.00000       -0.00003       -0.04256     125.95744
	            B(5,1,21)      68.73981       -0.00027       -0.13273      68.60707
	            B(5,4,14)     126.00000        0.00008        0.12425     126.12425
	            B(5,4,21)      77.46369       -0.00090       -1.03804      76.42565
	           B(5,21,22)     147.96722       -0.00091       -0.76793     147.19929
	             B(6,7,8)     108.00000       -0.00001        0.00527     108.00527
	            B(6,7,17)     126.00000        0.00010        0.13069     126.13069
	            B(6,7,22)      75.91615       -0.00071       -0.75873      75.15742
	            B(6,10,9)     108.00000        0.00001        0.02289     108.02289
	           B(6,10,20)     126.00000        0.00008        0.12216     126.12216
	           B(6,10,22)      75.91615       -0.00070       -0.76091      75.15525
	            B(6,22,7)      35.34404        0.00098        0.87519      36.21923
	            B(6,22,8)      60.96389        0.00175        1.47994      62.44383
	            B(6,22,9)      60.96389        0.00173        1.46446      62.42836
	           B(6,22,10)      35.34404        0.00096        0.85493      36.19897
	           B(6,22,21)     141.91000       -0.00111       -0.97068     140.93932
	            B(7,6,10)     108.00000        0.00006        0.08088     108.08088
	            B(7,6,16)     126.00000       -0.00002       -0.03335     125.96665
	            B(7,6,22)      68.73981       -0.00027       -0.11646      68.62335
	             B(7,8,9)     108.00000       -0.00004       -0.06285     107.93715
	            B(7,8,18)     126.00000        0.00006        0.10086     126.10086
	            B(7,8,22)      77.46369       -0.00090       -1.03657      76.42712
	            B(7,22,8)      37.29583        0.00098        0.80502      38.10085
	            B(7,22,9)      62.58532        0.00176        1.42785      64.01317
	           B(7,22,10)      60.28877        0.00174        1.49835      61.78712
	           B(7,22,21)     144.99801       -0.00099       -0.82272     144.17529
	            B(8,7,17)     126.00000       -0.00009       -0.13669     125.86331
	            B(8,7,22)      65.24048       -0.00008        0.23155      65.47203
	            B(8,9,10)     108.00000       -0.00002       -0.04630     107.95370
	            B(8,9,19)     126.00000       -0.00002       -0.04167     125.95833
	            B(8,9,22)      70.51044       -0.00050       -0.37457      70.13586
	            B(8,22,9)      38.97912        0.00100        0.73541      39.71453
	           B(8,22,10)      62.58532        0.00176        1.42722      64.01254
	           B(8,22,21)     151.70860       -0.00079       -0.61340     151.09520
	            B(9,8,18)     126.00000       -0.00002       -0.04100     125.95900
	            B(9,8,22)      70.51044       -0.00049       -0.36084      70.14960
	           B(9,10,20)     126.00000       -0.00010       -0.14583     125.85417
	           B(9,10,22)      65.24048       -0.00008        0.22883      65.46931
	           B(9,22,10)      37.29583        0.00097        0.79469      38.09052
	           B(9,22,21)     151.70860       -0.00081       -0.64521     151.06339
	           B(10,6,16)     126.00000       -0.00004       -0.04815     125.95185
	           B(10,6,22)      68.73981       -0.00026       -0.09402      68.64578
	           B(10,9,19)     126.00000        0.00005        0.08491     126.08491
	           B(10,9,22)      77.46369       -0.00089       -1.02352      76.44017
	          B(10,22,21)     144.99801       -0.00102       -0.86416     144.13385
	           B(11,1,21)     128.09000        0.00024        0.03868     128.12868
	           B(12,2,21)     124.28157        0.00043        0.29465     124.57621
	           B(13,3,21)     117.93359        0.00076        0.78659     118.72018
	           B(14,4,21)     117.93359        0.00076        0.78618     118.71977
	           B(15,5,21)     124.28157        0.00042        0.28100     124.56257
	           B(16,6,22)     128.09000        0.00024        0.03524     128.12524
	           B(17,7,22)     124.28157        0.00043        0.29101     124.57258
	           B(18,8,22)     117.93359        0.00077        0.79467     118.72826
	           B(19,9,22)     117.93359        0.00077        0.79525     118.72884
	          B(20,10,22)     124.28157        0.00043        0.29491     124.57647
	           D(1,2,3,4)       0.00000       -0.00004       -0.06453      -0.06453
	          D(1,2,3,13)     180.00000        0.00059        0.53947     180.53947
	          D(1,2,3,21)     -64.42948        0.00093        0.82912     -63.60036
	          D(1,2,21,3)     117.81090        0.00054        0.42835     118.23925
	          D(1,2,21,4)      77.65454        0.00050        0.51129      78.16583
	          D(1,2,21,5)      35.03135        0.00008        0.15409      35.18544
	         D(1,2,21,22)    -109.43402        0.00037        0.37021    -109.06381
	           D(1,5,4,3)      -0.00000        0.00003        0.05503       0.05503
	          D(1,5,4,14)     180.00000       -0.00058       -0.51560     179.48440
	          D(1,5,4,21)      64.42948       -0.00090       -0.77944      63.65003
	          D(1,5,21,2)     -35.03135       -0.00005       -0.12665     -35.15801
	          D(1,5,21,3)     -77.65454       -0.00042       -0.43422     -78.08876
	          D(1,5,21,4)    -117.81090       -0.00049       -0.37537    -118.18627
	         D(1,5,21,22)      95.29535       -0.00035       -0.28335      95.01199
	          D(1,21,2,3)    -117.81090       -0.00054       -0.42835    -118.23925
	         D(1,21,2,12)     124.22103       -0.00031       -0.32227     123.89877
	          D(1,21,3,2)      35.81848        0.00006        0.10142      35.91990
	          D(1,21,3,4)     -78.66944       -0.00054       -0.50804     -79.17748
	         D(1,21,3,13)     160.12687       -0.00025       -0.22642     159.90045
	          D(1,21,4,3)      78.66944        0.00045        0.40634      79.07578
	          D(1,21,4,5)     -35.81848       -0.00010       -0.13609     -35.95456
	         D(1,21,4,14)    -160.12687        0.00018        0.16800    -159.95887
	          D(1,21,5,4)     117.81090        0.00049        0.37537     118.18627
	         D(1,21,5,15)    -124.22103        0.00027        0.27806    -123.94297
	        *D(1,21,22,6)      79.58924        0.00000       -0.00024      79.58900
	         D(1,21,22,7)      18.48718       -0.00014       -0.18679      18.30039
	         D(1,21,22,8)     -55.66705       -0.00015       -0.21348     -55.88052
	         D(1,21,22,9)    -145.15448        0.00000        0.03474    -145.11974
	        D(1,21,22,10)     140.69130        0.00008        0.12253     140.81383
	           D(2,1,5,4)       0.00000       -0.00005       -0.09505      -0.09505
	          D(2,1,5,15)     180.00000       -0.00047       -0.37836     179.62164
	          D(2,1,5,21)      57.62030       -0.00053       -0.24587      57.37443
	          D(2,1,21,3)     -37.80561       -0.00002       -0.00713     -37.81274
	          D(2,1,21,4)     -82.67082       -0.00039       -0.20603     -82.87686
	          D(2,1,21,5)    -120.47643       -0.00046       -0.26178    -120.73821
	         D(2,1,21,22)     109.06099       -0.00028       -0.13198     108.92901
	           D(2,3,4,5)       0.00000        0.00000        0.00584       0.00584
	          D(2,3,4,14)     180.00000        0.00061        0.57542     180.57542
	          D(2,3,4,21)     -69.07817        0.00124        1.33316     -67.74501
	          D(2,3,21,4)     114.48791        0.00060        0.60946     115.09738
	          D(2,3,21,5)      76.08503        0.00049        0.52860      76.61363
	         D(2,3,21,22)     -96.64308        0.00041        0.39288     -96.25020
	          D(2,21,1,5)     120.47643        0.00046        0.26178     120.73821
	         D(2,21,1,11)    -119.76178        0.00023        0.11731    -119.64448
	          D(2,21,3,4)    -114.48791       -0.00060       -0.60946    -115.09738
	         D(2,21,3,13)     124.30839       -0.00031       -0.32785     123.98055
	          D(2,21,4,3)      38.40288        0.00006        0.01549      38.41837
	          D(2,21,4,5)     -76.08503       -0.00048       -0.52694     -76.61198
	         D(2,21,4,14)     159.60657       -0.00021       -0.22285     159.38372
	          D(2,21,5,4)      82.77954        0.00044        0.24872      83.02826
	         D(2,21,5,15)    -159.25239        0.00022        0.15141    -159.10098
	         D(2,21,22,6)     131.39088        0.00014        0.18718     131.57806
	        *D(2,21,22,7)      70.28882        0.00000        0.00063      70.28945
	         D(2,21,22,8)      -3.86541       -0.00001       -0.02606      -3.89146
	         D(2,21,22,9)     -93.35284        0.00014        0.22216     -93.13068
	        D(2,21,22,10)    -167.50706        0.00023        0.30995    -167.19711
	           D(3,2,1,5)      -0.00000        0.00006        0.09869       0.09869
	          D(3,2,1,11)     180.00000       -0.00034       -0.18052     179.81948
	          D(3,2,1,21)      57.62030       -0.00049       -0.17901      57.44129
	          D(3,2,21,4)     -40.15636       -0.00004        0.08294     -40.07342
	          D(3,2,21,5)     -82.77954       -0.00046       -0.27426     -83.05380
	         D(3,2,21,22)     132.75508       -0.00017       -0.05814     132.69694
	          D(3,4,5,15)     180.00000        0.00045        0.33742     180.33742
	          D(3,4,5,21)     -64.42948        0.00093        0.83448     -63.59500
	          D(3,4,21,5)     114.48791        0.00054        0.54243     115.03035
	         D(3,4,21,22)    -126.56622        0.00027        0.27569    -126.29053
	          D(3,21,1,5)      82.67082        0.00044        0.25465      82.92547
	         D(3,21,1,11)    -157.56739        0.00021        0.11017    -157.45722
	         D(3,21,2,12)    -117.96807        0.00023        0.10609    -117.86198
	          D(3,21,4,5)    -114.48791       -0.00054       -0.54243    -115.03035
	         D(3,21,4,14)     121.20369       -0.00027       -0.23834     120.96535
	          D(3,21,5,4)      40.15636        0.00006       -0.05884      40.09751
	         D(3,21,5,15)     158.12443       -0.00015       -0.15615     157.96827
	         D(3,21,22,6)    -168.71920        0.00015        0.21283    -168.50637
	         D(3,21,22,7)     130.17874        0.00001        0.02628     130.20503
	        *D(3,21,22,8)      56.02452        0.00000       -0.00041      56.02411
	         D(3,21,22,9)     -33.46291        0.00016        0.24781     -33.21510
	        D(3,21,22,10)    -107.61714        0.00024        0.33560    -107.28153
	          D(4,3,2,12)     180.00000       -0.00047       -0.37820     179.62180
	          D(4,3,2,21)      64.42948       -0.00097       -0.89364      63.53584
	          D(4,3,21,5)     -38.40288       -0.00012       -0.08086     -38.48374
	         D(4,3,21,22)     148.86900       -0.00019       -0.21658     148.65242
	          D(4,5,1,11)     180.00000        0.00034        0.18418     180.18418
	          D(4,5,1,21)     -57.62030        0.00048        0.15082     -57.46948
	         D(4,5,21,22)    -146.89376        0.00014        0.09202    -146.80174
	          D(4,21,1,5)      37.80561        0.00006        0.05575      37.86136
	         D(4,21,1,11)     157.56739       -0.00017       -0.08873     157.47867
	         D(4,21,2,12)    -158.12443        0.00019        0.18902    -157.93540
	         D(4,21,3,13)    -121.20369        0.00030        0.28161    -120.92208
	         D(4,21,5,15)     117.96807       -0.00021       -0.09731     117.87076
	         D(4,21,22,6)     -67.93199       -0.00000       -0.03500     -67.96698
	         D(4,21,22,7)    -129.03405       -0.00014       -0.22154    -129.25559
	         D(4,21,22,8)     156.81173       -0.00016       -0.24823     156.56350
	        *D(4,21,22,9)      67.32430        0.00000       -0.00001      67.32428
	        D(4,21,22,10)      -6.82992        0.00008        0.08778      -6.74215
	          D(5,1,2,12)     180.00000        0.00049        0.41331     180.41331
	          D(5,1,2,21)     -57.62030        0.00055        0.27770     -57.34261
	         D(5,1,21,22)    -130.46258        0.00018        0.12981    -130.33278
	          D(5,4,3,13)     180.00000       -0.00062       -0.59719     179.40281
	          D(5,4,3,21)      69.07817       -0.00124       -1.32733      67.75084
	         D(5,4,21,22)     118.94587       -0.00027       -0.26675     118.67912
	         D(5,21,1,11)     119.76178       -0.00023       -0.14448     119.61731
	         D(5,21,2,12)     159.25239       -0.00023       -0.16818     159.08421
	         D(5,21,3,13)    -159.60657        0.00018        0.20076    -159.40582
	         D(5,21,4,14)    -124.30839        0.00028        0.30409    -124.00430
	         D(5,21,22,6)      23.51123       -0.00008       -0.12274      23.38849
	         D(5,21,22,7)     -37.59083       -0.00023       -0.30929     -37.90012
	         D(5,21,22,8)    -111.74505       -0.00024       -0.33598    -112.08103
	         D(5,21,22,9)     158.76751       -0.00008       -0.08776     158.67975
	       *D(5,21,22,10)      84.61329        0.00000        0.00003      84.61332
	           D(6,7,8,9)      -0.00000        0.00003        0.05967       0.05967
	          D(6,7,8,18)     180.00000       -0.00059       -0.54011     179.45989
	          D(6,7,8,22)      64.42948       -0.00093       -0.81351      63.61597
	          D(6,7,22,8)    -117.81090       -0.00050       -0.38062    -118.19152
	          D(6,7,22,9)     -77.65454       -0.00046       -0.46305     -78.11759
	         D(6,7,22,10)     -35.03135       -0.00007       -0.14857     -35.17993
	         D(6,7,22,21)     110.99408       -0.00029       -0.27639     110.71768
	          D(6,10,9,8)      -0.00000       -0.00003       -0.05998      -0.05998
	         D(6,10,9,19)     180.00000        0.00059        0.54784     180.54784
	         D(6,10,9,22)     -64.42948        0.00093        0.82964     -63.59984
	         D(6,10,22,7)      35.03135        0.00009        0.16809      35.19944
	         D(6,10,22,8)      77.65454        0.00049        0.49455      78.14909
	         D(6,10,22,9)     117.81090        0.00052        0.40516     118.21606
	        D(6,10,22,21)    -110.99408        0.00028        0.25709    -110.73698
	          D(6,22,7,8)     117.81090        0.00050        0.38062     118.19152
	         D(6,22,7,17)    -124.22103        0.00028        0.29148    -123.92956
	          D(6,22,8,7)     -35.81848       -0.00011       -0.15575     -35.97422
	          D(6,22,8,9)      78.66944        0.00049        0.44333      79.11277
	         D(6,22,8,18)    -160.12687        0.00019        0.17369    -159.95318
	          D(6,22,9,8)     -78.66944       -0.00052       -0.48542     -79.15486
	         D(6,22,9,10)      35.81848        0.00009        0.13198      35.95046
	         D(6,22,9,19)     160.12687       -0.00022       -0.20914     159.91773
	         D(6,22,10,9)    -117.81090       -0.00052       -0.40516    -118.21606
	        D(6,22,10,20)     124.22103       -0.00029       -0.30278     123.91826
	          D(7,6,10,9)       0.00000        0.00006        0.09699       0.09699
	         D(7,6,10,20)     180.00000        0.00049        0.40391     180.40391
	         D(7,6,10,22)     -57.62030        0.00054        0.25911     -57.36120
	          D(7,6,22,8)      37.80561        0.00004        0.03299      37.83860
	          D(7,6,22,9)      82.67082        0.00041        0.22810      82.89892
	         D(7,6,22,10)     120.47643        0.00044        0.24691     120.72334
	         D(7,6,22,21)    -119.76178        0.00018        0.07946    -119.68232
	          D(7,8,9,10)       0.00000        0.00000        0.00000       0.00000
	          D(7,8,9,19)     180.00000       -0.00063       -0.60667     179.39333
	          D(7,8,9,22)      69.07817       -0.00126       -1.35721      67.72096
	          D(7,8,22,9)    -114.48791       -0.00060       -0.59908    -115.08699
	         D(7,8,22,10)     -76.08503       -0.00053       -0.57896     -76.66399
	         D(7,8,22,21)     114.40068       -0.00028       -0.27296     114.12772
	         D(7,22,6,10)    -120.47643       -0.00044       -0.24691    -120.72334
	         D(7,22,6,16)     119.76178       -0.00022       -0.12168     119.64010
	          D(7,22,8,9)     114.48791        0.00060        0.59908     115.08699
	         D(7,22,8,18)    -124.30839        0.00030        0.32943    -123.97896
	          D(7,22,9,8)     -38.40288       -0.00008       -0.03714     -38.44003
	         D(7,22,9,10)      76.08503        0.00053        0.58026      76.66529
	         D(7,22,9,19)    -159.60657        0.00022        0.23913    -159.36744
	         D(7,22,10,9)     -82.77954       -0.00042       -0.23707     -83.01661
	        D(7,22,10,20)     159.25239       -0.00019       -0.13469     159.11770
	          D(8,7,6,10)      -0.00000       -0.00006       -0.09687      -0.09687
	          D(8,7,6,16)     180.00000        0.00034        0.17623     180.17623
	          D(8,7,6,22)     -57.62030        0.00048        0.14853     -57.47177
	          D(8,7,22,9)      40.15636        0.00004       -0.08243      40.07393
	         D(8,7,22,10)      82.77954        0.00042        0.23205      83.01159
	         D(8,7,22,21)    -131.19503        0.00020        0.10423    -131.09080
	         D(8,9,10,20)     180.00000       -0.00047       -0.36587     179.63413
	         D(8,9,10,22)      64.42948       -0.00097       -0.88963      63.53985
	         D(8,9,22,10)    -114.48791       -0.00061       -0.61740    -115.10531
	         D(8,9,22,21)     131.11140       -0.00026       -0.25946     130.85195
	         D(8,22,6,10)     -82.67082       -0.00040       -0.21392     -82.88474
	         D(8,22,6,16)     157.56739       -0.00017       -0.08869     157.47871
	         D(8,22,7,17)     117.96807       -0.00022       -0.08915     117.87892
	         D(8,22,9,10)     114.48791        0.00061        0.61740     115.10531
	         D(8,22,9,19)    -121.20369        0.00030        0.27628    -120.92741
	         D(8,22,10,9)     -40.15636       -0.00003        0.08939     -40.06697
	        D(8,22,10,20)    -158.12443        0.00020        0.19177    -157.93266
	          D(9,8,7,17)     180.00000        0.00046        0.35409     180.35409
	          D(9,8,7,22)     -64.42948        0.00096        0.87318     -63.55630
	         D(9,8,22,10)      38.40288        0.00007        0.02012      38.42300
	         D(9,8,22,21)    -131.11140        0.00032        0.32611    -130.78529
	         D(9,10,6,16)     180.00000       -0.00034       -0.17606     179.82394
	         D(9,10,6,22)      57.62030       -0.00049       -0.16212      57.45818
	        D(9,10,22,21)     131.19503       -0.00024       -0.14807     131.04696
	         D(9,22,6,10)     -37.80561       -0.00003       -0.01881     -37.82442
	         D(9,22,6,16)    -157.56739        0.00019        0.10642    -157.46097
	         D(9,22,7,17)     158.12443       -0.00018       -0.17157     157.95285
	         D(9,22,8,18)     121.20369       -0.00029       -0.26965     120.93405
	        D(9,22,10,20)    -117.96807        0.00023        0.10238    -117.86569
	         D(10,6,7,17)     180.00000       -0.00048       -0.39229     179.60771
	         D(10,6,7,22)      57.62030       -0.00053       -0.24540      57.37490
	        D(10,6,22,21)     119.76178       -0.00026       -0.16745     119.59433
	         D(10,9,8,18)     180.00000        0.00062        0.59887     180.59887
	         D(10,9,8,22)     -69.07817        0.00126        1.35738     -67.72079
	        D(10,9,22,21)    -114.40068        0.00035        0.35794    -114.04274
	        D(10,22,6,16)    -119.76178        0.00022        0.12523    -119.63655
	        D(10,22,7,17)    -159.25239        0.00020        0.14290    -159.10949
	        D(10,22,8,18)     159.60657       -0.00023       -0.24953     159.35705
	        D(10,22,9,19)     124.30839       -0.00031       -0.34112     123.96727
	         D(11,1,2,12)       0.00000        0.00009        0.13411       0.13411
	         D(11,1,2,21)     122.37970        0.00015       -0.00151     122.37819
	         D(11,1,5,15)      -0.00000       -0.00007       -0.09913      -0.09913
	         D(11,1,5,21)    -122.37970       -0.00013        0.03335    -122.34634
	        D(11,1,21,22)     -10.70080       -0.00005       -0.01467     -10.71547
	         D(12,2,1,21)    -122.37970       -0.00006        0.13562    -122.24408
	         D(12,2,3,13)      -0.00000        0.00015        0.22580       0.22580
	         D(12,2,3,21)     115.57052        0.00050        0.51544     116.08596
	        D(12,2,21,22)      14.78701        0.00006        0.04795      14.83496
[...]
	          D(2,3,4,21)     -64.48942        0.00000       -4.70734     -69.19676
	          D(2,3,21,4)     116.03831        0.00000        2.89426     118.93258
	          D(2,3,21,5)      78.54569        0.00000        0.77365      79.31934
	         D(2,3,21,22)    -107.50645       -0.00000       -1.41055    -108.91700
	          D(2,21,1,5)     116.16448        0.00000       -0.72803     115.43645
	         D(2,21,1,11)    -121.85043       -0.00000       -1.35594    -123.20637
	          D(2,21,3,4)    -116.03831       -0.00000       -2.89426    -118.93258
	         D(2,21,3,13)     122.25313       -0.00000       -0.99752     121.25561
	          D(2,21,4,3)      37.19335        0.00000       -2.48727      34.70609
	          D(2,21,4,5)     -78.60051       -0.00000        2.07546     -76.52505
	         D(2,21,4,14)     159.26472        0.00000       -0.69593     158.56879
	          D(2,21,5,4)      78.76611        0.00000        1.57453      80.34064
	         D(2,21,5,15)    -159.60316        0.00000       -0.58837    -160.19152
	         D(2,21,22,6)     105.82503        0.00000        2.88618     108.71122
	        *D(2,21,22,7)      40.65206        0.00000       -0.00393      40.64813
	         D(2,21,22,8)     -33.94840       -0.00000        1.46250     -32.48590
	         D(2,21,22,9)    -115.84208       -0.00000        5.67405    -110.16803
	        D(2,21,22,10)     171.03943       -0.00000        5.90257     176.94199
	           D(3,2,1,5)      -0.01252       -0.00000       -0.06901      -0.08153
	          D(3,2,1,11)     181.74897       -0.00000       -1.68916     180.05982
	          D(3,2,1,21)      64.03655       -0.00000       -3.98787      60.04868
	          D(3,2,21,4)     -37.44040        0.00000        1.20622     -36.23418
	          D(3,2,21,5)     -79.02988        0.00000        1.40423     -77.62565
	         D(3,2,21,22)     129.20759        0.00000       -2.45750     126.75009
	          D(3,4,5,15)     177.82685        0.00000        0.52354     178.35040
	          D(3,4,5,21)     -64.65110        0.00000       -1.66507     -66.31617
	          D(3,4,21,5)     115.79386        0.00000       -4.56273     111.23113
	         D(3,4,21,22)    -122.42695       -0.00000        0.40589    -122.02106
	          D(3,21,1,5)      79.00920       -0.00000       -0.73491      78.27428
	         D(3,21,1,11)    -159.00571       -0.00000       -1.36282    -160.36853
	         D(3,21,2,12)    -121.99594        0.00000       -0.57330    -122.56924
	          D(3,21,4,5)    -115.79386       -0.00000        4.56273    -111.23113
	         D(3,21,4,14)     122.07137        0.00000        1.79133     123.86270
	          D(3,21,5,4)      37.48327       -0.00000        2.46112      39.94440
	         D(3,21,5,15)     159.11400        0.00000        0.29823     159.41223
	         D(3,21,22,6)     171.24208        0.00000        1.44198     172.68406
	         D(3,21,22,7)     106.06910        0.00000       -1.44813     104.62097
	        *D(3,21,22,8)      31.46865        0.00000        0.01829      31.48695
	         D(3,21,22,9)     -50.42503        0.00000        4.22985     -46.19518
	        D(3,21,22,10)    -123.54353        0.00000        4.45836    -119.08516
	          D(4,3,2,12)     181.59652       -0.00000        1.16388     182.76040
	          D(4,3,2,21)      64.07605       -0.00000        1.01846      65.09451
	          D(4,3,21,5)     -37.49262        0.00000       -2.12061     -39.61323
	         D(4,3,21,22)     136.45524       -0.00000       -4.30481     132.15043
	          D(4,5,1,11)     178.35795        0.00000       -1.13052     177.22743
	          D(4,5,1,21)     -64.02783       -0.00000       -3.52400     -67.55182
	         D(4,5,21,22)    -136.51404        0.00000        5.30693    -131.20711
	          D(4,21,1,5)      37.43572       -0.00000       -1.07565      36.36007
	         D(4,21,1,11)     159.42081       -0.00000       -1.70356     157.71725
	         D(4,21,2,12)    -159.43634        0.00000        0.63292    -158.80342
	         D(4,21,3,13)    -121.70855        0.00000        1.89674    -119.81181
	         D(4,21,5,15)     121.63073        0.00000       -2.16289     119.46784
	         D(4,21,22,6)    -103.74887        0.00000       -2.77284    -106.52171
	         D(4,21,22,7)    -168.92185        0.00000       -5.66295    -174.58480
	         D(4,21,22,8)     116.47770       -0.00000       -4.19652     112.28118
	        *D(4,21,22,9)      34.58402       -0.00000        0.01503      34.59905
	        D(4,21,22,10)     -38.53448        0.00000        0.24355     -38.29093
	          D(5,1,2,12)     178.29289        0.00000        1.58386     179.87675
	          D(5,1,2,21)     -64.04906        0.00000        3.91886     -60.13021
	         D(5,1,21,22)    -128.82401        0.00000       -1.14686    -129.97088
	          D(5,4,3,13)     182.12898       -0.00000       -1.23206     180.89692
	          D(5,4,3,21)      64.66911       -0.00000        0.32336      64.99247
	         D(5,4,21,22)     121.77919       -0.00000        4.96862     126.74781
	         D(5,21,1,11)     121.98509       -0.00000       -0.62791     121.35718
	         D(5,21,2,12)     158.97419        0.00000        0.83093     159.80511
	         D(5,21,3,13)    -159.20117        0.00000       -0.22387    -159.42505
	         D(5,21,4,14)    -122.13477        0.00000       -2.77139    -124.90617
	         D(5,21,22,6)     -19.27998        0.00000       -3.10622     -22.38620
	         D(5,21,22,7)     -84.45295        0.00000       -5.99634     -90.44929
	         D(5,21,22,8)    -159.05341       -0.00000       -4.52991    -163.58332
	         D(5,21,22,9)     119.05291       -0.00000       -0.31836     118.73456
	       *D(5,21,22,10)      45.93442        0.00000       -0.08984      45.84458
	           D(6,7,8,9)      -0.13351        0.00000        2.80786       2.67435
	          D(6,7,8,18)     182.31111        0.00000        0.71518     183.02629
	          D(6,7,8,22)      64.30088        0.00000        2.60959      66.91047
	          D(6,7,22,8)    -116.20341        0.00000       -2.05210    -118.25550
	          D(6,7,22,9)     -78.76753       -0.00000        1.60437     -77.16316
	         D(6,7,22,10)     -37.31991        0.00000        2.18448     -35.13544
	         D(6,7,22,21)     113.76759       -0.00000        5.14973     118.91732
	          D(6,10,9,8)      -0.10884        0.00000        1.84695       1.73810
	         D(6,10,9,19)     177.84638       -0.00000        1.29813     179.14451
	         D(6,10,9,22)     -64.44801        0.00000        3.37920     -61.06881
	         D(6,10,22,7)      37.06612       -0.00000       -2.70319      34.36293
	         D(6,10,22,8)      78.64330       -0.00000       -2.58365      76.05965
	         D(6,10,22,9)     116.08544       -0.00000       -4.58941     111.49603
	        D(6,10,22,21)    -114.47180       -0.00000       -6.27023    -120.74203
	          D(6,22,7,8)     116.20341       -0.00000        2.05210     118.25550
	         D(6,22,7,17)    -122.23936        0.00000       -0.23208    -122.47144
	          D(6,22,8,7)     -37.03876        0.00000        1.67153     -35.36723
	          D(6,22,8,9)      78.81940        0.00000       -3.68636      75.13304
	         D(6,22,8,18)    -159.14831        0.00000       -1.69706    -160.84537
	          D(6,22,9,8)     -78.60954        0.00000       -2.90140     -81.51094
	         D(6,22,9,10)      37.30451       -0.00000        2.33323      39.63774
	         D(6,22,9,19)     159.37327        0.00000        0.43315     159.80642
	         D(6,22,10,9)    -116.08544        0.00000        4.58941    -111.49603
	        D(6,22,10,20)     122.03909        0.00000        2.60614     124.64523
	          D(7,6,10,9)       0.02630        0.00000        0.02226       0.04857
	         D(7,6,10,20)     178.05775        0.00000        1.65386     179.71161
	         D(7,6,10,22)     -64.09630        0.00000        2.39871     -61.69759
	          D(7,6,22,8)      37.38731       -0.00000       -0.21020      37.17711
	          D(7,6,22,9)      78.91883       -0.00000        1.57743      80.49626
	         D(7,6,22,10)     116.21340       -0.00000        4.54993     120.76333
	         D(7,6,22,21)    -122.30134       -0.00000        1.65609    -120.64525
	          D(7,8,9,10)       0.14954       -0.00000       -2.85401      -2.70447
	          D(7,8,9,19)     182.19653       -0.00000       -2.29913     179.89740
	          D(7,8,9,22)      64.67086        0.00000       -2.70841      61.96246
	          D(7,8,22,9)    -115.85816       -0.00000        5.35789    -110.50027
	         D(7,8,22,10)     -78.49568        0.00000        2.56602     -75.92966
	         D(7,8,22,21)     117.03592        0.00000        4.73139     121.76732
	         D(7,22,6,10)    -116.21340        0.00000       -4.54993    -120.76333
	         D(7,22,6,16)     122.09124        0.00000       -2.22062     119.87062
	          D(7,22,8,9)     115.85816        0.00000       -5.35789     110.50027
	         D(7,22,8,18)    -122.10955       -0.00000       -3.36859    -125.47814
	          D(7,22,9,8)     -37.46146        0.00000       -3.08299     -40.54446
	         D(7,22,9,10)      78.45259       -0.00000        2.15164      80.60423
	         D(7,22,9,19)    -159.47865        0.00000        0.25156    -159.22709
	         D(7,22,10,9)     -79.01932        0.00000        1.88623     -77.13309
	        D(7,22,10,20)     159.10521        0.00000       -0.09704     159.00817
	          D(8,7,6,10)       0.06618       -0.00000       -1.92135      -1.85517
	          D(8,7,6,16)     178.36655       -0.00000       -1.27024     177.09632
	          D(8,7,6,22)     -63.85598       -0.00000       -3.53725     -67.39323
	          D(8,7,22,9)      37.43588       -0.00000        3.65647      41.09235
	         D(8,7,22,10)      78.88349        0.00000        4.23657      83.12007
	         D(8,7,22,21)    -130.02901       -0.00000        7.20183    -122.82718
	         D(8,9,10,20)     181.86202        0.00000        0.20774     182.06977
	         D(8,9,10,22)      64.33917        0.00000       -1.53226      62.80691
	         D(8,9,22,10)    -115.91405        0.00000       -5.23464    -121.14869
	         D(8,9,22,21)     128.11657        0.00000       -6.15677     121.95980
	         D(8,22,6,10)     -78.82609       -0.00000       -4.76013     -83.58622
	         D(8,22,6,16)     159.47855       -0.00000       -2.43082     157.04773
	         D(8,22,7,17)     121.55724        0.00000       -2.28418     119.27306
	         D(8,22,9,10)     115.91405       -0.00000        5.23464     121.14869
	         D(8,22,9,19)    -122.01719        0.00000        3.33456    -118.68263
	         D(8,22,10,9)     -37.44215       -0.00000        2.00576     -35.43638
	        D(8,22,10,20)    -159.31761       -0.00000        0.02249    -159.29512
	          D(9,8,7,17)     177.97459        0.00000        0.77632     178.75091
	          D(9,8,7,22)     -64.43438       -0.00000        0.19827     -64.23612
	         D(9,8,22,10)      37.36248        0.00000       -2.79187      34.57061
	         D(9,8,22,21)    -127.10592        0.00000       -0.62649    -127.73241
	         D(9,10,6,16)     181.72141        0.00000       -0.66485     181.05655
	         D(9,10,6,22)      64.12261       -0.00000       -2.37645      61.74616
	        D(9,10,22,21)     129.44276       -0.00000       -1.68082     127.76194
	         D(9,22,6,10)     -37.29457       -0.00000       -2.97250     -40.26707
	         D(9,22,6,16)    -158.98993       -0.00000       -0.64319    -159.63312
	         D(9,22,7,17)     158.99311       -0.00000        1.37229     160.36541
	         D(9,22,8,18)     122.03229       -0.00000        1.98930     124.02159
	        D(9,22,10,20)    -121.87547        0.00000       -1.98327    -123.85874
	         D(10,6,7,17)     181.96426        0.00000        0.24955     182.21381
	         D(10,6,7,22)      63.92216        0.00000        1.61590      65.53806
	        D(10,6,22,21)     121.48525       -0.00000       -2.89384     118.59141
	         D(10,9,8,18)     177.70171       -0.00000       -0.74501     176.95670
	         D(10,9,8,22)     -64.52132       -0.00000       -0.14561     -64.66693
	        D(10,9,22,21)    -115.96938        0.00000       -0.92213    -116.89152
	        D(10,22,6,16)    -121.69536        0.00000        2.32931    -119.36605
	        D(10,22,7,17)    -159.55927        0.00000        1.95239    -157.60687
	        D(10,22,8,18)     159.39477        0.00000       -0.80258     158.59220
	        D(10,22,9,19)     122.06876        0.00000       -1.90008     120.16868
	         D(11,1,2,12)       0.05438       -0.00000       -0.03628       0.01810
	         D(11,1,2,21)     117.71243        0.00000        2.29871     120.01114
	         D(11,1,5,15)       0.35002       -0.00000        2.68718       3.03720
	         D(11,1,5,21)    -117.61423        0.00000        2.39348    -115.22075
	        D(11,1,21,22)      -6.83892        0.00000       -1.77477      -8.61369
	         D(12,2,1,21)    -117.65805       -0.00000       -2.33499    -119.99304
	         D(12,2,3,13)      -0.35689        0.00000       -1.87246      -2.22936
	         D(12,2,3,21)     117.52047        0.00000        0.14542     117.66589
	        D(12,2,21,22)       7.21165        0.00000       -3.03080       4.18085
	         D(13,3,2,21)    -117.87736       -0.00000       -2.01788    -119.89524
	         D(13,3,4,14)      -0.51519       -0.00000       -0.06237      -0.57757
	         D(13,3,4,21)     117.45986       -0.00000       -1.55541     115.90445
	        D(13,3,21,22)      14.74669       -0.00000       -2.40807      12.33861
	         D(14,4,3,21)    -117.97506       -0.00000        1.49304    -116.48202
	         D(14,4,5,15)       0.47239       -0.00000       -0.61265      -0.14027
	         D(14,4,5,21)     117.99443       -0.00000       -2.80127     115.19316
	        D(14,4,21,22)      -0.35559        0.00000        2.19723       1.84164
	         D(15,5,1,21)     117.96425       -0.00000        0.29370     118.25795
	         D(15,5,4,21)    -117.52204        0.00000        2.18861    -115.33343
	        D(15,5,21,22)     -14.88331        0.00000        3.14404     -11.73927
	         D(16,6,7,17)       0.26464       -0.00000        0.90066       1.16529
	         D(16,6,7,22)    -117.77747        0.00000        2.26701    -115.51045
	        D(16,6,10,20)      -0.24714        0.00000        0.96674       0.71960
	        D(16,6,10,22)     117.59880        0.00000        1.71159     119.31039
	        D(16,6,22,21)      -0.21010       -0.00000       -0.56453      -0.77463
	         D(17,7,6,22)     118.04210       -0.00000       -1.36636     116.67575
	         D(17,7,8,18)       0.41920        0.00000       -1.31636      -0.89716
	         D(17,7,8,22)    -117.59103        0.00000        0.57806    -117.01297
	        D(17,7,22,21)      -8.47177       -0.00000        4.91765      -3.55412
	         D(18,8,7,22)     118.01023       -0.00000       -1.89442     116.11582
	         D(18,8,9,19)      -0.25130       -0.00000       -0.19013      -0.44143
	         D(18,8,9,22)    -117.77696        0.00000       -0.59941    -118.37637
	        D(18,8,22,21)      -5.07363        0.00000        1.36280      -3.71082
	         D(19,9,8,22)     117.52566       -0.00000        0.40928     117.93494
	        D(19,9,10,20)      -0.18275       -0.00000       -0.34108      -0.52383
	        D(19,9,10,22)    -117.70561       -0.00000       -2.08108    -119.78668
	        D(19,9,22,21)       6.09938        0.00000       -2.82221       3.27716
	        D(20,10,6,22)    -117.84594        0.00000       -0.74485    -118.59079
	        D(20,10,9,22)     117.52285       -0.00000        1.74000     119.26285
	       D(20,10,22,21)       7.56729       -0.00000       -3.66409       3.90320
	-------------------------------------------------------------------------------

	                                 ==> Convergence Check <==                                  
    
	Measures of convergence in internal coordinates in au.
    
	Criteria marked as inactive (o), active & met (*), and active & unmet ( ).

	----------------------------------------------------------------------------------------------
	   Step    Total Energy     Delta E     Max Force     RMS Force      Max Disp      RMS Disp   
	----------------------------------------------------------------------------------------------
	  Convergence Criteria     1.00e-06 *    3.00e-04 *             o    1.20e-03 *             o
	----------------------------------------------------------------------------------------------
	    34    -785.21811797   -8.10e-07 *    1.12e-04 *    1.81e-05 o    2.02e-01      5.29e-02 o  ~
	----------------------------------------------------------------------------------------------

Next Geometry in Ang 
	Fragment 1 (Ang)

	    C  -0.9694688059   1.3637462692   3.2497534165
	    C  -1.3567258793  -0.0384825275   3.4258230422
	    C  -0.1375785622  -0.7056909816   3.5491857534
	    C   0.9678125575   0.1550736121   3.5272061195
	    C   0.4067766359   1.3885469663   3.2871646037
	    C   0.1360017362   0.8057124839  -3.5333364230
	    C  -0.9890414524   0.0013931808  -3.4142807652
	    C  -0.6474459506  -1.4294891964  -3.3241345589
	    C   0.8675241651  -1.3554918163  -3.3385091205
	    C   1.4011442483   0.0439583631  -3.4974384978
	    H  -1.6509434465   2.2067768481   3.1190403008
	    H  -2.3657829859  -0.4497411612   3.4528396210
	    H  -0.0757902814  -1.7835640111   3.7316826193
	    H   2.0128254280  -0.1048357098   3.6904953493
	    H   0.9942482190   2.3107696313   3.2324352406
	    H   0.1224728402   1.8919594057  -3.6600344920
	    H  -2.0232690271   0.3521858872  -3.4505529576
	    H  -1.2809735032  -2.3133248739  -3.2681573171
	    H   1.5135368431  -2.2383256660  -3.2840060254
	    H   2.4327555783   0.3849699581  -3.5704021901
	   Mg   0.0465711444   0.1647177713   1.3815994573
	   Mg   0.0992329019  -0.1936198288  -1.3925058233


    Final optimized geometry and variables:
    Molecular point group: c1
    Full point group: C1

    Geometry (in Angstrom), charge = 0, multiplicity = 1:

    C           -0.957426782931     1.349305649491     3.144438231407
    C           -1.312776675083    -0.028547010921     3.327991123518
    C           -0.118198295777    -0.760126137149     3.603969060018
    C            0.978444394702     0.161606585309     3.589516154322
    C            0.455870058373     1.466069140944     3.307696885741
    C            0.121427979392     0.838300533768    -3.481034662418
    C           -1.032012182249     0.000027464939    -3.445676184528
    C           -0.588986100572    -1.361769202064    -3.354238951301
    C            0.841958944107    -1.360223466054    -3.336516432233
    C            1.282141342513    -0.001738120214    -3.413187692652
    H           -1.651510704303     2.168312178043     2.946082742159
    H           -2.324134030639    -0.438182364938     3.292416779732
    H           -0.054274100768    -1.827979975681     3.822386406555
    H            2.021791688203    -0.079663736192     3.802550808537
    H            1.034707917297     2.390719071803     3.261800214713
    H            0.123323043664     1.926070360489    -3.574050603345
    H           -2.070267323247     0.331470656172    -3.510865110495
    H           -1.230628354321    -2.245103607648    -3.344280061254
    H            1.485146462009    -2.241988516596    -3.306775647648
    H            2.319866027660     0.335649038424    -3.449422457183
    MG           0.079464392787     0.101020530416     1.396199134959
    MG           0.099954702617    -0.265984467838    -1.365132385730


    Psi4 stopped on: Thursday, 24 August 2023 02:42AM
    Psi4 wall time for execution: 0:24:37.55

*** Psi4 exiting successfully. Buy a developer a beer!
